 -- * Using ORCA version: /home/kruse/Progs//orca_3_0_3_linux_x86-64/ * --

                                 *****************
                                 * O   R   C   A *
                                 *****************

           --- An Ab Initio, DFT and Semiempirical electronic structure package ---

                  #######################################################
                  #                        -***-                        #
                  #  Department of molecular theory and spectroscopy    #
                  #              Directorship: Frank Neese              #
                  # Max Planck Institute for Chemical Energy Conversion #
                  #                  D-45470 Muelheim/Ruhr              #
                  #                       Germany                       #
                  #                                                     #
                  #                  All rights reserved                #
                  #                        -***-                        #
                  #######################################################


                         Program Version 3.0.3 - RELEASE   -


 With contributions from (in alphabetic order):
   Ute Becker             : Parallelization
   Dmytro Bykov           : SCF Hessian
   Dmitry Ganyushin       : Spin-Orbit,Spin-Spin,Magnetic field MRCI
   Andreas Hansen         : Spin unrestricted coupled pair/coupled cluster methods
   Dimitrios Liakos       : Extrapolation schemes; parallel MDCI
   Robert Izsak           : Overlap fitted RIJCOSX, COSX-SCS-MP3
   Christian Kollmar      : KDIIS, OOCD, Brueckner-CCSD(T), CCSD density
   Simone Kossmann        : Meta GGA functionals, TD-DFT gradient, OOMP2, MP2 Hessian
   Taras Petrenko         : DFT Hessian,TD-DFT gradient, ASA and ECA modules, normal mode analysis, Resonance Raman, ABS, FL, XAS/XES, NRVS
   Christoph Reimann      : Effective Core Potentials
   Michael Roemelt        : Restricted open shell CIS
   Christoph Riplinger    : Improved optimizer, TS searches, QM/MM, DLPNO-CCSD
   Barbara Sandhoefer     : DKH picture change effects
   Igor Schapiro          : Molecular dynamics
   Kantharuban Sivalingam : CASSCF convergence, NEVPT2
   Boris Wezisla          : Elementary symmetry handling
   Frank Wennmohs         : Technical directorship


 We gratefully acknowledge several colleagues who have allowed us to
 interface, adapt or use parts of their codes:
   Stefan Grimme, W. Hujo, H. Kruse, T. Risthaus : VdW corrections, initial TS optimization,
                                                   DFT functionals, gCP
   Ed Valeev                                     : LibInt (2-el integral package), F12 methods
   Garnet Chan, S. Sharma, R. Olivares           : DMRG
   Ulf Ekstrom                                   : XCFun DFT Library
   Mihaly Kallay                                 : mrcc  (arbitrary order and MRCC methods)
   Andreas Klamt, Michael Diedenhofen            : otool_cosmo (COSMO solvation model)
   Frank Weinhold                                : gennbo (NPA and NBO analysis)
   Christopher J. Cramer and Donald G. Truhlar   : smd solvation model


 Your calculation uses the libint2 library for the computation of 2-el integrals
 For citations please refer to: http://libint.valeyev.net

 This ORCA versions uses:
   CBLAS   interface :  Fast vector & matrix operations
   LAPACKE interface :  Fast linear algebra routines
   SCALAPACK package :  Parallel linear algebra routines


Your calculation utilizes the basis: def2-TZVPD
Cite in your paper:
H - Rn: D. Rappoport, F. Furche, J. Chem. Phys. 133, 134105 (2010).



*****************************************
The coordinations will be read from file: struc.xyz
*****************************************


================================================================================
                                        WARNINGS
                       Please study these warnings very carefully!
================================================================================
Now building the actual basis set


INFO   : the flag for use of LIBINT has been found!

================================================================================
                                       INPUT FILE
================================================================================
NAME = orca.in
|  1> ! PBE0 def2-TZVPD PAL8 RIJCOSX def2-TZVP/J
|  2> %output
|  3>        print[P_Hirshfeld] 1
|  4>        print[P_BondOrder_M] 1
|  5>        print[P_Mayer] 1
|  6>  end 
|  7> *xyzfile -1 1 struc.xyz
|  8> 
|  9>                          ****END OF INPUT****
================================================================================

                       ****************************
                       * Single Point Calculation *
                       ****************************

---------------------------------
CARTESIAN COORDINATES (ANGSTROEM)
---------------------------------
  H      3.028759   -1.807634   -4.528097
  O      2.626282   -1.775115   -3.645713
  C      1.985887   -0.495683   -3.493438
  H      1.300049   -0.303657   -4.327484
  H      2.733607    0.308513   -3.453747
  C      1.204411   -0.494052   -2.194012
  H      0.823945    0.516539   -2.015662
  O      0.046401   -1.386014   -2.290352
  C      0.166415   -2.445101   -1.339194
  H     -0.518098   -2.287018   -0.502444
  N     -0.264879   -3.695457   -1.967362
  C      0.461603   -4.221301   -3.011921
  H      1.327779   -3.632811   -3.300331
  C      0.110310   -5.362403   -3.650341
  H      0.706083   -5.753238   -4.464265
  C     -1.090321   -6.058826   -3.261955
  O     -1.531321   -7.103652   -3.755646
  N     -1.811059   -5.412968   -2.246207
  H     -2.687424   -5.843788   -1.962157
  C     -1.481927   -4.254340   -1.572937
  O     -2.209608   -3.759020   -0.715300
  C      1.995725   -0.971682   -0.976272
  H      3.070100   -0.799231   -1.068303
  C      1.627774   -2.454434   -0.852841
  H      2.249902   -3.045755   -1.527542
  O      1.786928   -2.984454    0.451897
  H      1.634414   -2.250510    1.087708
  O      1.495915   -0.315004    0.197530
  P      2.498475    0.249130    1.378096
  O      3.860970    0.494370    0.800470
  O      2.291163   -0.630167    2.577330
  O      1.734360    1.649634    1.702528
  C      1.873632    2.739337    0.765993
  H      1.899855    2.358292   -0.260407
  H      2.805805    3.276758    0.968255
  C      0.707826    3.687514    0.928853
  H      0.916796    4.588133    0.336493
  O     -0.509672    3.076166    0.419303
  C     -1.623184    3.459142    1.201227
  H     -2.406663    3.884102    0.570687
  N     -2.201808    2.237402    1.845778
  C     -1.544589    1.034663    1.859398
  H     -0.578117    1.041149    1.371878
  C     -2.069260   -0.074212    2.440471
  H     -1.527107   -1.010393    2.435686
  C     -3.360341   -0.015931    3.075459
  O     -3.951847   -0.944082    3.641446
  N     -3.960427    1.252074    3.009881
  H     -4.874620    1.350537    3.444304
  C     -3.455519    2.393977    2.427160
  O     -4.057674    3.467947    2.414965
  C      0.366001    4.097368    2.360962
  H      0.500159    3.253970    3.044163
  C     -1.123853    4.466686    2.245464
  H     -1.665914    4.382683    3.192450
  O     -1.254107    5.777611    1.695460
  H     -0.478651    6.274431    2.027727
  O      1.183763    5.202890    2.746996
  H      1.216894    5.232220    3.717913

----------------------------
CARTESIAN COORDINATES (A.U.)
----------------------------
  NO LB      ZA    FRAG    MASS        X           Y           Z
   0 H     1.0000    0     1.008          5.723525980512263         -3.415932832419381         -8.556863804748257
   1 O     8.0000    0    15.999          4.962954486337426         -3.354480639297782         -6.889399510821675
   2 C     6.0000    0    12.011          3.752782184969246         -0.936704363350034         -6.601640896860976
   3 H     1.0000    0     1.008          2.456736381705576         -0.573829135565966         -8.177760364816528
   4 H     1.0000    0     1.008          5.165768776742684          0.583005456699674         -6.526635965852121
   5 C     6.0000    0    12.011          2.276007131654842         -0.933623731806516         -4.146081436591607
   6 H     1.0000    0     1.008          1.557030966331586          0.976117247489549         -3.809049158551978
   7 O     8.0000    0    15.999          0.087686127203147         -2.619186688808116         -4.328138408224033
   8 C     6.0000    0    12.011          0.314479152521732         -4.620571259776987         -2.530709900190537
   9 H     1.0000    0     1.008         -0.979062763614492         -4.321837494375700         -0.949482124549769
  10 N     7.0000    0    14.007         -0.500548201709087         -6.983401102764386         -3.717775575256195
  11 C     6.0000    0    12.011          0.872304008486905         -7.977103574738367         -5.691706204951458
  12 H     1.0000    0     1.008          2.509139054317052         -6.865018264241823         -6.236722497180912
  13 C     6.0000    0    12.011          0.208455311887626        -10.133473845608174         -6.898145352342076
  14 H     1.0000    0     1.008          1.334304064735359        -10.872044203268834         -8.436239184113022
  15 C     6.0000    0    12.011         -2.060409032926220        -11.449521455136335         -6.164201989120324
  16 O     8.0000    0    15.999         -2.893777691067652        -13.423957208627193         -7.097142962874654
  17 N     7.0000    0    14.007         -3.422406089291128        -10.229027658597291         -4.244716259069466
  18 H     1.0000    0     1.008         -5.078495365727186        -11.043159282640630         -3.707939928674362
  19 C     6.0000    0    12.011         -2.800435613545678         -8.039538047504378         -2.972419777966465
  20 O     8.0000    0    15.999         -4.175553983321469         -7.103518142960050         -1.351720725648645
  21 C     6.0000    0    12.011          3.771374255537830         -1.836212302343029         -1.844886523242955
  22 H     1.0000    0     1.008          5.801648392724248         -1.510327518767402         -2.018800098046475
  23 C     6.0000    0    12.011          3.076046500999691         -4.638207317894421         -1.611635358861694
  24 H     1.0000    0     1.008          4.251698608161692         -5.755642254103481         -2.886635849089723
  25 O     8.0000    0    15.999          3.376805485898701         -5.639800530313202          0.853961192795385
  26 H     1.0000    0     1.008          3.088595605337222         -4.252846805760663          2.055470989565670
  27 O     8.0000    0    15.999          2.826869669624809         -0.595271669034957          0.373278170151305
  28 P    15.0000    0    30.974          4.721433880394126          0.470787471743801          2.604223270361888
  29 O     8.0000    0    15.999          7.296175533340708          0.934224475744489          1.512669645337784
  30 O     8.0000    0    15.999          4.329671354063870         -1.190843237607367          4.870447289821419
  31 O     8.0000    0    15.999          3.277466362490729          3.117357426068117          3.217311277387454
  32 C     6.0000    0    12.011          3.540650977805916          5.176597663380507          1.447517557418581
  33 H     1.0000    0     1.008          3.590205077243119          4.456525834844803         -0.492097157465578
  34 H     1.0000    0     1.008          5.302203224159531          6.192175416108146          1.829736588827308
  35 C     6.0000    0    12.011          1.337596723551104          6.968390819110037          1.755277977643770
  36 H     1.0000    0     1.008          1.732493171701854          8.670314647033900          0.635880371872017
  37 O     8.0000    0    15.999         -0.963141442990979          5.813110715562161          0.792367648158969
  38 C     6.0000    0    12.011         -3.067372847017606          6.536831794235081          2.269990243644437
  39 H     1.0000    0     1.008         -4.547934155613935          7.339889812106255          1.078442327161731
  40 N     7.0000    0    14.007         -4.160813363586430          4.228077598405516          3.488015112989514
  41 C     6.0000    0    12.011         -2.918850577412519          1.955228766038297          3.513752427043067
  42 H     1.0000    0     1.008         -1.092482614391539          1.967486852551204          2.592473520179006
  43 C     6.0000    0    12.011         -3.910335455768343         -0.140240544823177          4.611822394694771
  44 H     1.0000    0     1.008         -2.885814763084535         -1.909366624548936          4.602779488226118
  45 C     6.0000    0    12.011         -6.350124395559686         -0.030104849094273          5.811775624048545
  46 O     8.0000    0    15.999         -7.467908931103524         -1.784055672074190          6.881335104545165
  47 N     7.0000    0    14.007         -7.484121647496887          2.366076959403317          5.687850785693031
  48 H     1.0000    0     1.008         -9.211697751798278          2.552145063727606          6.508792037859957
  49 C     6.0000    0    12.011         -6.529983804670976          4.523960900906396          4.586667305263078
  50 O     8.0000    0    15.999         -7.667891844842328          6.553469132090736          4.563622850950362
  51 C     6.0000    0    12.011          0.691640898850858          7.742903200920038          4.461571403622373
  52 H     1.0000    0     1.008          0.945162777525466          6.149111581077895          5.752634943933960
  53 C     6.0000    0    12.011         -2.123775140676254          8.440813077247567          4.243311625634123
  54 H     1.0000    0     1.008         -3.148121222665288          8.282070790765006          6.032856952127353
  55 O     8.0000    0    15.999         -2.369918961606192         10.918102498330898          3.203955637935965
  56 H     1.0000    0     1.008         -0.904519681672768         11.856955291322587          3.831848893330351
  57 O     8.0000    0    15.999          2.236988633359476          9.832037015944927          5.191069564059302
  58 H     1.0000    0     1.008          2.299596771957194          9.887463439343291          7.025836981800336

--------------------------------
INTERNAL COORDINATES (ANGSTROEM)
--------------------------------
 H      0   0   0   0.000000     0.000     0.000
 O      1   0   0   0.970385     0.000     0.000
 C      2   1   0   1.438833   108.098     0.000
 H      3   2   1   1.096759   110.703    52.920
 H      3   2   1   1.098814   110.594   292.056
 C      3   2   1   1.516316   108.726   172.902
 H      6   3   2   1.094467   108.651   172.858
 O      6   3   2   1.464876   110.512   290.390
 C      8   6   3   1.428555   109.951   117.530
 H      9   8   6   1.092565   110.489   105.639
 N      9   8   6   1.464240   108.826   221.054
 C     11   9   8   1.376733   119.751    65.728
 H     12  11   9   1.086168   114.540   359.473
 C     12  11   9   1.353921   122.872   180.940
 H     14  12  11   1.081744   121.091   180.384
 C     14  12  11   1.441306   119.756     1.631
 O     16  14  12   1.236881   126.699   179.874
 N     16  14  12   1.402975   113.615     2.103
 H     18  16  14   1.017008   116.736   177.544
 C     18  16  14   1.379870   128.116   357.528
 O     20  18  16   1.228985   122.526   178.278
 C      6   3   2   1.528790   114.551    49.691
 H     22   6   3   1.092012   113.128    27.451
 C     22   6   3   1.532702   104.012   264.075
 H     24  22   6   1.091754   109.719    83.097
 O     24  22   6   1.417248   114.140   203.936
 H     26  24  22   0.982950   107.387    29.864
 O     22   6   3   1.434868   109.167   150.077
 P     28  22   6   1.648365   122.050   221.008
 O     29  28  22   1.500062   109.427    23.493
 O     29  28  22   1.501434   106.717   249.760
 O     29  28  22   1.628048    98.724   139.781
 C     32  29  28   1.443588   118.346   284.624
 H     33  32  29   1.095162   110.346    36.610
 H     33  32  29   1.094841   109.440   276.820
 C     33  32  29   1.511511   109.221   157.323
 H     36  33  32   1.098032   108.036   170.507
 O     36  33  32   1.454541   110.132   288.688
 C     38  36  33   1.413501   110.593   144.564
 H     39  38  36   1.091793   110.566   126.054
 N     39  38  36   1.497632   108.748   242.998
 C     41  39  38   1.370658   122.335    12.250
 H     42  41  39   1.082491   114.732     0.175
 C     42  41  39   1.357398   122.395   180.159
 H     44  42  41   1.081845   120.752   180.000
 C     44  42  41   1.439964   120.150   359.903
 O     46  44  42   1.237612   126.858   180.137
 N     46  44  42   1.404364   113.520     0.261
 H     48  46  44   1.016941   116.846   180.078
 C     48  46  44   1.377838   127.695   359.811
 O     50  48  46   1.231320   123.219   179.822
 C     36  33  32   1.528320   116.212    47.487
 H     52  36  33   1.093656   110.556   322.467
 C     39  38  36   1.534570   107.337     3.902
 H     54  39  38   1.094381   112.164   213.679
 O     54  39  38   1.427583   108.123    90.939
 H     56  54  39   0.979062   105.246   216.190
 O     52  36  33   1.428264   109.438    84.988
 H     58  52  36   0.971925   108.233   201.659

---------------------------
INTERNAL COORDINATES (A.U.)
---------------------------
 H      0   0   0   0.000000     0.000     0.000
 O      1   0   0   1.833762     0.000     0.000
 C      2   1   0   2.719001   108.098     0.000
 H      3   2   1   2.072575   110.703    52.920
 H      3   2   1   2.076457   110.594   292.056
 C      3   2   1   2.865423   108.726   172.902
 H      6   3   2   2.068243   108.651   172.858
 O      6   3   2   2.768215   110.512   290.390
 C      8   6   3   2.699579   109.951   117.530
 H      9   8   6   2.064649   110.489   105.639
 N      9   8   6   2.767013   108.826   221.054
 C     11   9   8   2.601648   119.751    65.728
 H     12  11   9   2.052561   114.540   359.473
 C     12  11   9   2.558539   122.872   180.940
 H     14  12  11   2.044200   121.091   180.384
 C     14  12  11   2.723674   119.756     1.631
 O     16  14  12   2.337366   126.699   179.874
 N     16  14  12   2.651239   113.615     2.103
 H     18  16  14   1.921866   116.736   177.544
 C     18  16  14   2.607576   128.116   357.528
 O     20  18  16   2.322445   122.526   178.278
 C      6   3   2   2.888994   114.551    49.691
 H     22   6   3   2.063604   113.128    27.451
 C     22   6   3   2.896388   104.012   264.075
 H     24  22   6   2.063115   109.719    83.097
 O     24  22   6   2.678210   114.140   203.936
 H     26  24  22   1.857507   107.387    29.864
 O     22   6   3   2.711508   109.167   150.077
 P     28  22   6   3.114959   122.050   221.008
 O     29  28  22   2.834706   109.427    23.493
 O     29  28  22   2.837299   106.717   249.760
 O     29  28  22   3.076565    98.724   139.781
 C     32  29  28   2.727986   118.346   284.624
 H     33  32  29   2.069557   110.346    36.610
 H     33  32  29   2.068950   109.440   276.820
 C     33  32  29   2.856342   109.221   157.323
 H     36  33  32   2.074979   108.036   170.507
 O     36  33  32   2.748684   110.132   288.688
 C     38  36  33   2.671129   110.593   144.564
 H     39  38  36   2.063189   110.566   126.054
 N     39  38  36   2.830114   108.748   242.998
 C     41  39  38   2.590169   122.335    12.250
 H     42  41  39   2.045611   114.732     0.175
 C     42  41  39   2.565110   122.395   180.159
 H     44  42  41   2.044390   120.752   180.000
 C     44  42  41   2.721137   120.150   359.903
 O     46  44  42   2.338748   126.858   180.137
 N     46  44  42   2.653864   113.520     0.261
 H     48  46  44   1.921740   116.846   180.078
 C     48  46  44   2.603737   127.695   359.811
 O     50  48  46   2.326858   123.219   179.822
 C     36  33  32   2.888105   116.212    47.487
 H     52  36  33   2.066710   110.556   322.467
 C     39  38  36   2.899917   107.337     3.902
 H     54  39  38   2.068080   112.164   213.679
 O     54  39  38   2.697742   108.123    90.939
 H     56  54  39   1.850159   105.246   216.190
 O     52  36  33   2.699027   109.438    84.988
 H     58  52  36   1.836672   108.233   201.659

---------------------
BASIS SET INFORMATION
---------------------
There are 5 groups of distinct atoms

 Group   1 Type H   : 5s2p contracted to 3s2p pattern {311/11}
 Group   2 Type O   : 12s7p3d1f contracted to 6s4p3d1f pattern {621111/4111/111/1}
 Group   3 Type C   : 12s6p3d1f contracted to 6s3p3d1f pattern {621111/411/111/1}
 Group   4 Type N   : 12s6p3d1f contracted to 6s3p3d1f pattern {621111/411/111/1}
 Group   5 Type P   : 15s9p4d1f contracted to 6s5p3d1f pattern {732111/51111/211/1}

Atom   0H    basis set group =>   1
Atom   1O    basis set group =>   2
Atom   2C    basis set group =>   3
Atom   3H    basis set group =>   1
Atom   4H    basis set group =>   1
Atom   5C    basis set group =>   3
Atom   6H    basis set group =>   1
Atom   7O    basis set group =>   2
Atom   8C    basis set group =>   3
Atom   9H    basis set group =>   1
Atom  10N    basis set group =>   4
Atom  11C    basis set group =>   3
Atom  12H    basis set group =>   1
Atom  13C    basis set group =>   3
Atom  14H    basis set group =>   1
Atom  15C    basis set group =>   3
Atom  16O    basis set group =>   2
Atom  17N    basis set group =>   4
Atom  18H    basis set group =>   1
Atom  19C    basis set group =>   3
Atom  20O    basis set group =>   2
Atom  21C    basis set group =>   3
Atom  22H    basis set group =>   1
Atom  23C    basis set group =>   3
Atom  24H    basis set group =>   1
Atom  25O    basis set group =>   2
Atom  26H    basis set group =>   1
Atom  27O    basis set group =>   2
Atom  28P    basis set group =>   5
Atom  29O    basis set group =>   2
Atom  30O    basis set group =>   2
Atom  31O    basis set group =>   2
Atom  32C    basis set group =>   3
Atom  33H    basis set group =>   1
Atom  34H    basis set group =>   1
Atom  35C    basis set group =>   3
Atom  36H    basis set group =>   1
Atom  37O    basis set group =>   2
Atom  38C    basis set group =>   3
Atom  39H    basis set group =>   1
Atom  40N    basis set group =>   4
Atom  41C    basis set group =>   3
Atom  42H    basis set group =>   1
Atom  43C    basis set group =>   3
Atom  44H    basis set group =>   1
Atom  45C    basis set group =>   3
Atom  46O    basis set group =>   2
Atom  47N    basis set group =>   4
Atom  48H    basis set group =>   1
Atom  49C    basis set group =>   3
Atom  50O    basis set group =>   2
Atom  51C    basis set group =>   3
Atom  52H    basis set group =>   1
Atom  53C    basis set group =>   3
Atom  54H    basis set group =>   1
Atom  55O    basis set group =>   2
Atom  56H    basis set group =>   1
Atom  57O    basis set group =>   2
Atom  58H    basis set group =>   1
-------------------------------
AUXILIARY BASIS SET INFORMATION
-------------------------------
There are 5 groups of distinct atoms

 Group   1 Type H   : 5s2p1d contracted to 3s1p1d pattern {311/2/1}
 Group   2 Type O   : 12s5p4d2f1g contracted to 6s4p3d1f1g pattern {711111/2111/211/2/1}
 Group   3 Type C   : 12s5p4d2f1g contracted to 6s4p3d1f1g pattern {711111/2111/211/2/1}
 Group   4 Type N   : 12s5p4d2f1g contracted to 6s4p3d1f1g pattern {711111/2111/211/2/1}
 Group   5 Type P   : 14s5p5d2f1g contracted to 8s4p3d1f1g pattern {71111111/2111/311/2/1}

Atom   0H    basis set group =>   1
Atom   1O    basis set group =>   2
Atom   2C    basis set group =>   3
Atom   3H    basis set group =>   1
Atom   4H    basis set group =>   1
Atom   5C    basis set group =>   3
Atom   6H    basis set group =>   1
Atom   7O    basis set group =>   2
Atom   8C    basis set group =>   3
Atom   9H    basis set group =>   1
Atom  10N    basis set group =>   4
Atom  11C    basis set group =>   3
Atom  12H    basis set group =>   1
Atom  13C    basis set group =>   3
Atom  14H    basis set group =>   1
Atom  15C    basis set group =>   3
Atom  16O    basis set group =>   2
Atom  17N    basis set group =>   4
Atom  18H    basis set group =>   1
Atom  19C    basis set group =>   3
Atom  20O    basis set group =>   2
Atom  21C    basis set group =>   3
Atom  22H    basis set group =>   1
Atom  23C    basis set group =>   3
Atom  24H    basis set group =>   1
Atom  25O    basis set group =>   2
Atom  26H    basis set group =>   1
Atom  27O    basis set group =>   2
Atom  28P    basis set group =>   5
Atom  29O    basis set group =>   2
Atom  30O    basis set group =>   2
Atom  31O    basis set group =>   2
Atom  32C    basis set group =>   3
Atom  33H    basis set group =>   1
Atom  34H    basis set group =>   1
Atom  35C    basis set group =>   3
Atom  36H    basis set group =>   1
Atom  37O    basis set group =>   2
Atom  38C    basis set group =>   3
Atom  39H    basis set group =>   1
Atom  40N    basis set group =>   4
Atom  41C    basis set group =>   3
Atom  42H    basis set group =>   1
Atom  43C    basis set group =>   3
Atom  44H    basis set group =>   1
Atom  45C    basis set group =>   3
Atom  46O    basis set group =>   2
Atom  47N    basis set group =>   4
Atom  48H    basis set group =>   1
Atom  49C    basis set group =>   3
Atom  50O    basis set group =>   2
Atom  51C    basis set group =>   3
Atom  52H    basis set group =>   1
Atom  53C    basis set group =>   3
Atom  54H    basis set group =>   1
Atom  55O    basis set group =>   2
Atom  56H    basis set group =>   1
Atom  57O    basis set group =>   2
Atom  58H    basis set group =>   1

Checking for AutoStart:
The File: orca.gbw exists
Trying to determine its content:
     ... Fine, the file contains calculation information
     ... Fine, the calculation information was read
     ... Fine, the file contains a basis set
     ... Fine, the basis set was read
     ... Fine, the file contains a geometry
     ... Fine, the geometry was read
     ... Fine, the file contains a set of orbitals
     ... Fine, the orbitals can be read
     => possible old guess file was deleted
     => GBW file was renamed to GES file
     => GES file is set as startup file
     => Guess is set to MORead
     ... now leaving AutoStart



           ************************************************************
           *        Program running with 8 parallel MPI-processes     *
           *              working on a common directory               *
           ************************************************************
------------------------------------------------------------------------------
                           ORCA GTO INTEGRAL CALCULATION
                           -- RI-GTO INTEGRALS CHOSEN --
------------------------------------------------------------------------------

                         BASIS SET STATISTICS AND STARTUP INFO

Gaussian basis set:
 # of primitive gaussian shells          ...  989
 # of primitive gaussian functions       ... 2225
 # of contracted shells                  ...  607
 # of contracted basis functions         ... 1615
 Highest angular momentum                ...    3
 Maximum contraction depth               ...    7
Auxiliary gaussian basis set:
 # of primitive gaussian shells          ... 1067
 # of primitive gaussian functions       ... 2949
 # of contracted shells                  ...  667
 # of contracted aux-basis functions     ... 2057
 Highest angular momentum                ...    4
 Maximum contraction depth               ...    7
Ratio of auxiliary to basis functions    ...  1.27
Integral package used                  ... LIBINT
 One Electron integrals                  ... done
 Ordering auxiliary basis shells         ... done
 Integral threshhold             Thresh  ...  1.000e-10
 Primitive cut-off               TCut    ...  1.000e-11
 Pre-screening matrix                    ... done
 Shell pair data                         ... 
 Ordering of the shell pairs             ... done (   0.033 sec) 125655 of 184528 pairs
 Determination of significant pairs      ... done (   0.001 sec)
 Creation of shell pair data             ... done (   0.025 sec)
 Storage of shell pair data              ... done (   0.016 sec)
 Shell pair data done in (   0.075 sec)
 Computing two index integrals           ... done
 Cholesky decomposition of the V-matrix  ... done


Timings:
 Total evaluation time                   ...   5.708 sec (  0.095 min)
 One electron matrix time                ...   2.206 sec (  0.037 min) = 38.6%
 Schwartz matrix evaluation time         ...   2.968 sec (  0.049 min) = 52.0%
 Two index repulsion integral time       ...   0.179 sec (  0.003 min) =  3.1%
 Cholesky decomposition of V             ...   0.231 sec (  0.004 min) =  4.1%
 Three index repulsion integral time     ...   0.000 sec (  0.000 min) =  0.0%

           ************************************************************
           *              Shut down parallel processing               *
           ************************************************************


           ************************************************************
           *        Program running with 8 parallel MPI-processes     *
           *              working on a common directory               *
           ************************************************************
-------------------------------------------------------------------------------
                                 ORCA SCF
-------------------------------------------------------------------------------

------------
SCF SETTINGS
------------
Hamiltonian:
 Density Functional     Method          .... DFT(GTOs)
 Exchange Functional    Exchange        .... PBE
   PBE kappa parameter  XKappa          ....  0.804000
 Correlation Functional Correlation     .... PBE
 LDA part of GGA corr.  LDAOpt          .... PW91-LDA
 Gradients option       PostSCFGGA      .... off
 Hybrid DFT is turned on
   Fraction HF Exchange ScalHFX         ....  0.250000
   Scaling of DF-GGA-X  ScalDFX         ....  0.750000
   Scaling of DF-GGA-C  ScalDFC         ....  1.000000
   Scaling of DF-LDA-C  ScalLDAC        ....  1.000000
   Perturbative correction              ....  0.000000
   NL short-range parameter             ....  6.900000
 RI-approximation to the Coulomb term is turned on
   Number of auxiliary basis functions  .... 2057
   RIJ-COSX (HFX calculated with COS-X)).... on


General Settings:
 Integral files         IntName         .... orca
 Hartree-Fock type      HFTyp           .... RHF
 Total Charge           Charge          ....   -1
 Multiplicity           Mult            ....    1
 Number of Electrons    NEL             ....  286
 Basis Dimension        Dim             .... 1615
 Nuclear Repulsion      ENuc            ....   4722.3769323086 Eh

Convergence Acceleration:
 DIIS                   CNVDIIS         .... on
   Start iteration      DIISMaxIt       ....    12
   Startup error        DIISStart       ....  0.200000
   # of expansion vecs  DIISMaxEq       ....     5
   Bias factor          DIISBfac        ....   1.050
   Max. coefficient     DIISMaxC        ....  10.000
 Newton-Raphson         CNVNR           .... off
 SOSCF                  CNVSOSCF        .... on
   Start iteration      SOSCFMaxIt      ....   150
   Startup grad/error   SOSCFStart      ....  0.003300
 Level Shifting         CNVShift        .... on
   Level shift para.    LevelShift      ....    0.2500
   Turn off err/grad.   ShiftErr        ....    0.0010
 Zerner damping         CNVZerner       .... off
 Static damping         CNVDamp         .... on
   Fraction old density DampFac         ....    0.7000
   Max. Damping (<1)    DampMax         ....    0.9800
   Min. Damping (>=0)   DampMin         ....    0.0000
   Turn off err/grad.   DampErr         ....    0.1000
 Fernandez-Rico         CNVRico         .... off

SCF Procedure:
 Maximum # iterations   MaxIter         ....   125
 SCF integral mode      SCFMode         .... Direct
   Integral package                     .... LIBINT
 Reset frequeny         DirectResetFreq ....    20
 Integral Threshold     Thresh          ....  1.000e-10 Eh
 Primitive CutOff       TCut            ....  1.000e-11 Eh

Convergence Tolerance:
 Convergence Check Mode ConvCheckMode   .... Total+1el-Energy
 Energy Change          TolE            ....  1.000e-06 Eh
 1-El. energy change                    ....  1.000e-03 Eh
 Orbital Gradient       TolG            ....  5.000e-05
 Orbital Rotation angle TolX            ....  5.000e-05
 DIIS Error             TolErr          ....  1.000e-06


Diagonalization of the overlap matrix:
Smallest eigenvalue                        ... 4.390e-07
Time for diagonalization                   ...    0.763 sec
Threshold for overlap eigenvalues          ... 1.000e-08
Number of eigenvalues below threshold      ... 0
Time for construction of square roots      ...    0.518 sec
Total time needed                          ...    1.292 sec

---------------------
INITIAL GUESS: MOREAD
---------------------
Guess MOs are being read from file: orca.ges
Input Geometry matches current geometry (good)
Input basis set matches current basis set (good)
MOs were renormalized
MOs were reorthogonalized (Cholesky)
                      ------------------
                      INITIAL GUESS DONE (   3.2 sec)
                      ------------------
-------------------
DFT GRID GENERATION
-------------------

General Integration Accuracy     IntAcc      ...  4.340
Radial Grid Type                 RadialGrid  ... Gauss-Chebyshev
Angular Grid (max. acc.)         AngularGrid ... Lebedev-110
Angular grid pruning method      GridPruning ... 3 (G Style)
Weight generation scheme         WeightScheme... Becke
Basis function cutoff            BFCut       ...    1.0000e-10
Integration weight cutoff        WCut        ...    1.0000e-14
Grids for H and He will be reduced by one unit

# of grid points (after initial pruning)     ...  79914 (   0.0 sec)
# of grid points (after weights+screening)   ...  70364 (   0.5 sec)
nearest neighbour list constructed           ...    0.0 sec
Grid point re-assignment to atoms done       ...    0.0 sec
Grid point division into batches done        ...    0.1 sec
Reduced shell lists constructed in    0.7 sec

Total number of grid points                  ...    70364
Total number of batches                      ...     1132
Average number of points per batch           ...       62
Average number of grid points per atom       ...     1193
Average number of shells per batch           ...   258.93 (42.66%)
Average number of basis functions per batch  ...   666.16 (41.25%)
Average number of large shells per batch     ...   165.69 (63.99%)
Average number of large basis fcns per batch ...   429.59 (64.49%)
Maximum spatial batch extension              ...  18.64, 17.90, 19.64 au
Average spatial batch extension              ...   0.41,  0.41,  0.41 au

Time for grid setup =    1.308 sec

--------------------
COSX GRID GENERATION
--------------------

General Integration Accuracy     IntAcc      ...  3.340
Radial Grid Type                 RadialGrid  ... Gauss-Chebyshev
Angular Grid (max. acc.)         AngularGrid ... Lebedev-50
Angular grid pruning method      GridPruning ... 3 (G Style)
Weight generation scheme         WeightScheme... Becke
Basis function cutoff            BFCut       ...    1.0000e-10
Integration weight cutoff        WCut        ...    1.0000e-14
Grids for H and He will be reduced by one unit

# of grid points (after initial pruning)     ...  28570 (   0.0 sec)
# of grid points (after weights+screening)   ...  25474 (   0.2 sec)
nearest neighbour list constructed           ...    0.0 sec
Grid point re-assignment to atoms done       ...    0.0 sec
Grid point division into batches done        ...    0.0 sec
Reduced shell lists constructed in    0.3 sec

Total number of grid points                  ...    25474
Total number of batches                      ...      425
Average number of points per batch           ...       59
Average number of grid points per atom       ...      432
Average number of shells per batch           ...   273.80 (45.11%)
Average number of basis functions per batch  ...   708.42 (43.86%)
Average number of large shells per batch     ...   176.64 (64.51%)
Average number of large basis fcns per batch ...   459.22 (64.82%)
Maximum spatial batch extension              ...  16.24, 13.05, 14.24 au
Average spatial batch extension              ...   0.58,  0.52,  0.58 au

Overlap Fitting                  UseSFitting ... on
Constructing numerical overlap ... done (      0.6 sec)
Inverting numerical overlap    ... done (      0.2 sec)
Obtaining analytic overlap     ... done (      0.0 sec)
Final contraction and storage  ... done (      0.5 sec)


General Integration Accuracy     IntAcc      ...  3.670
Radial Grid Type                 RadialGrid  ... Gauss-Chebyshev
Angular Grid (max. acc.)         AngularGrid ... Lebedev-50
Angular grid pruning method      GridPruning ... 3 (G Style)
Weight generation scheme         WeightScheme... Becke
Basis function cutoff            BFCut       ...    1.0000e-10
Integration weight cutoff        WCut        ...    1.0000e-14
Grids for H and He will be reduced by one unit

# of grid points (after initial pruning)     ...  36190 (   0.0 sec)
# of grid points (after weights+screening)   ...  32167 (   0.2 sec)
nearest neighbour list constructed           ...    0.0 sec
Grid point re-assignment to atoms done       ...    0.0 sec
Grid point division into batches done        ...    0.0 sec
Reduced shell lists constructed in    0.3 sec

Total number of grid points                  ...    32167
Total number of batches                      ...      530
Average number of points per batch           ...       60
Average number of grid points per atom       ...      545
Average number of shells per batch           ...   267.62 (44.09%)
Average number of basis functions per batch  ...   690.44 (42.75%)
Average number of large shells per batch     ...   171.16 (63.96%)
Average number of large basis fcns per batch ...   444.37 (64.36%)
Maximum spatial batch extension              ...  17.13, 14.59, 15.25 au
Average spatial batch extension              ...   0.53,  0.47,  0.49 au

Overlap Fitting                  UseSFitting ... on
Constructing numerical overlap ... done (      0.7 sec)
Inverting numerical overlap    ... done (      0.2 sec)
Obtaining analytic overlap     ... done (      0.0 sec)
Final contraction and storage  ... done (      0.5 sec)


General Integration Accuracy     IntAcc      ...  4.010
Radial Grid Type                 RadialGrid  ... Gauss-Chebyshev
Angular Grid (max. acc.)         AngularGrid ... Lebedev-110
Angular grid pruning method      GridPruning ... 3 (G Style)
Weight generation scheme         WeightScheme... Becke
Basis function cutoff            BFCut       ...    1.0000e-10
Integration weight cutoff        WCut        ...    1.0000e-14
Grids for H and He will be reduced by one unit

# of grid points (after initial pruning)     ...  68532 (   0.0 sec)
# of grid points (after weights+screening)   ...  60467 (   0.5 sec)
nearest neighbour list constructed           ...    0.0 sec
Grid point re-assignment to atoms done       ...    0.0 sec
Grid point division into batches done        ...    0.1 sec
Reduced shell lists constructed in    0.6 sec

Total number of grid points                  ...    60467
Total number of batches                      ...      971
Average number of points per batch           ...       62
Average number of grid points per atom       ...     1025
Average number of shells per batch           ...   263.41 (43.39%)
Average number of basis functions per batch  ...   678.28 (42.00%)
Average number of large shells per batch     ...   168.90 (64.12%)
Average number of large basis fcns per batch ...   438.51 (64.65%)
Maximum spatial batch extension              ...  19.15, 16.93, 17.84 au
Average spatial batch extension              ...   0.44,  0.44,  0.44 au

Overlap Fitting                  UseSFitting ... on
Constructing numerical overlap ... done (      1.2 sec)
Inverting numerical overlap    ... done (      0.2 sec)
Obtaining analytic overlap     ... done (      0.0 sec)
Final contraction and storage  ... done (      0.5 sec)

Time for X-Grid setup             =    7.027 sec
--------------
SCF ITERATIONS
--------------
ITER       Energy         Delta-E        Max-DP      RMS-DP      [F,P]     Damp
               ***  Starting incremental Fock matrix formation  ***
  0  -2310.3020286503   0.00000000000031.08292490  0.03619980  0.3644021 0.7000
  1  -2310.8643872300  -0.56235857968831.53122669  0.03528322  0.1436189 0.7000
                               ***Turning on DIIS***
  2  -2311.0550147311  -0.19062750104180.66068520  0.08750206  0.0445245 0.0000
  3  -2311.4086295726  -0.353614841529 1.53749804  0.00250757  0.0822928 0.0000
  4  -2311.4622476212  -0.053618048650 0.40639617  0.00091972  0.0169718 0.0000
  5  -2311.4675215269  -0.005273905619 0.36508500  0.00050322  0.0041216 0.0000
                      *** Initiating the SOSCF procedure ***
                           *** Shutting down DIIS ***
                      *** Re-Reading the Fockian *** 
                      *** Removing any level shift *** 
ITER      Energy       Delta-E        Grad      Rot      Max-DP    RMS-DP
  6  -2311.46772074  -0.0001992090  0.000295  0.000295  0.316259  0.000452
               *** Restarting incremental Fock matrix formation ***
  7  -2311.46780467  -0.0000839325  0.000184  0.000441 24.711682  0.022790
  8  -2311.46778219   0.0000224809  0.000261  0.000498  8.526799  0.007889
  9  -2311.46777517   0.0000070130  0.000169  0.000353  8.347918  0.007734
 10  -2311.46778866  -0.0000134811  0.000083  0.000155  1.545958  0.001467
 11  -2311.46779116  -0.0000025022  0.000053  0.000102  2.338486  0.002165
 12  -2311.46778856   0.0000025943  0.000028  0.000094  0.091966  0.000269
                 **** Energy Check signals convergence ****
              ***Rediagonalizing the Fockian in SOSCF/NRSCF***

               *****************************************************
               *                     SUCCESS                       *
               *           SCF CONVERGED AFTER  13 CYCLES          *
               *****************************************************

Setting up the final grid:

General Integration Accuracy     IntAcc      ...  4.670
Radial Grid Type                 RadialGrid  ... Gauss-Chebyshev
Angular Grid (max. acc.)         AngularGrid ... Lebedev-302
Angular grid pruning method      GridPruning ... 3 (G Style)
Weight generation scheme         WeightScheme... Becke
Basis function cutoff            BFCut       ...    1.0000e-10
Integration weight cutoff        WCut        ...    1.0000e-14
Grids for H and He will be reduced by one unit

# of grid points (after initial pruning)     ... 305146 (   0.0 sec)
# of grid points (after weights+screening)   ... 261643 (   2.1 sec)
nearest neighbour list constructed           ...    0.0 sec
Grid point re-assignment to atoms done       ...    0.1 sec
Grid point division into batches done        ...    1.1 sec
Reduced shell lists constructed in    2.8 sec

Total number of grid points                  ...   261643
Total number of batches                      ...     4117
Average number of points per batch           ...       63
Average number of grid points per atom       ...     4435
Average number of shells per batch           ...   238.28 (39.25%)
Average number of basis functions per batch  ...   608.25 (37.66%)
Average number of large shells per batch     ...   149.86 (62.89%)
Average number of large basis fcns per batch ...   386.08 (63.47%)
Maximum spatial batch extension              ...  20.59, 21.61, 19.30 au
Average spatial batch extension              ...   0.28,  0.26,  0.29 au

Final grid set up in    5.1 sec
Final integration                            ... done (  12.3 sec)
Change in XC energy                          ...     0.000752594
Integrated number of electrons               ...   286.000598663
Previous integrated no of electrons          ...   285.999977493
Old exchange energy                            =    -66.489673907 Eh
New exchange energy                            =    -66.487312796 Eh
Exchange energy change after final integration =      0.002361111 Eh
Total energy after final integration           =  -2311.464674631 Eh
Final COS-X integration done in                =   181.384 sec

----------------
TOTAL SCF ENERGY
----------------

Total Energy       :        -2311.46467463 Eh          -62898.15148 eV

Components:
Nuclear Repulsion  :         4722.37693231 Eh          128502.40926 eV
Electronic Energy  :        -7033.84160694 Eh         -191400.56074 eV

One Electron Energy:       -12604.65399049 Eh         -342990.07236 eV
Two Electron Energy:         5570.81238355 Eh          151589.51162 eV

Virial components:
Potential Energy   :        -4612.80273786 Eh         -125520.74385 eV
Kinetic Energy     :         2301.33806323 Eh           62622.59237 eV
Virial Ratio       :            2.00440031


DFT components:
N(Alpha)           :      143.000299331440 electrons
N(Beta)            :      143.000299331440 electrons
N(Total)           :      286.000598662881 electrons
E(X)               :     -199.202219038271 Eh       
E(C)               :       -9.871118303622 Eh       
E(XC)              :     -209.073337341893 Eh       

---------------
SCF CONVERGENCE
---------------

  Last Energy change         ...    2.2777e-07  Tolerance :   1.0000e-06
  Last MAX-Density change    ...    3.1974e-13  Tolerance :   1.0000e-05
  Last RMS-Density change    ...    8.1325e-16  Tolerance :   1.0000e-06
  Last Orbital Gradient      ...    3.0849e-05  Tolerance :   5.0000e-05
  Last Orbital Rotation      ...    5.6543e-05  Tolerance :   5.0000e-05

             **** THE GBW FILE WAS UPDATED (orca.gbw) ****
             **** DENSITY FILE WAS UPDATED (orca.scfp.tmp) ****
             **** ENERGY FILE WAS UPDATED (orca.en.tmp) ****
----------------
ORBITAL ENERGIES
----------------

  NO   OCC          E(Eh)            E(eV) 
   0   2.0000     -77.167565     -2099.8362 
   1   2.0000     -19.176241      -521.8121 
   2   2.0000     -19.163850      -521.4749 
   3   2.0000     -19.163244      -521.4584 
   4   2.0000     -19.149393      -521.0815 
   5   2.0000     -19.144904      -520.9593 
   6   2.0000     -19.119309      -520.2629 
   7   2.0000     -19.116640      -520.1902 
   8   2.0000     -19.112413      -520.0752 
   9   2.0000     -19.108938      -519.9806 
  10   2.0000     -19.108733      -519.9751 
  11   2.0000     -19.108465      -519.9678 
  12   2.0000     -19.094740      -519.5943 
  13   2.0000     -19.019201      -517.5388 
  14   2.0000     -19.012553      -517.3579 
  15   2.0000     -14.380379      -391.3100 
  16   2.0000     -14.380070      -391.3016 
  17   2.0000     -14.366811      -390.9408 
  18   2.0000     -14.362494      -390.8233 
  19   2.0000     -10.297072      -280.1976 
  20   2.0000     -10.297016      -280.1961 
  21   2.0000     -10.269227      -279.4399 
  22   2.0000     -10.259824      -279.1840 
  23   2.0000     -10.255570      -279.0682 
  24   2.0000     -10.234134      -278.4849 
  25   2.0000     -10.224536      -278.2238 
  26   2.0000     -10.224264      -278.2164 
  27   2.0000     -10.220367      -278.1103 
  28   2.0000     -10.217215      -278.0245 
  29   2.0000     -10.216458      -278.0039 
  30   2.0000     -10.210249      -277.8350 
  31   2.0000     -10.206785      -277.7407 
  32   2.0000     -10.198493      -277.5151 
  33   2.0000     -10.195981      -277.4467 
  34   2.0000     -10.195136      -277.4238 
  35   2.0000     -10.166741      -276.6511 
  36   2.0000     -10.147735      -276.1339 
  37   2.0000      -6.544949      -178.0971 
  38   2.0000      -4.683856      -127.4542 
  39   2.0000      -4.682154      -127.4079 
  40   2.0000      -4.678811      -127.3169 
  41   2.0000      -1.041130       -28.3306 
  42   2.0000      -1.031302       -28.0632 
  43   2.0000      -1.025386       -27.9022 
  44   2.0000      -1.011420       -27.5221 
  45   2.0000      -1.010861       -27.5069 
  46   2.0000      -0.996600       -27.1189 
  47   2.0000      -0.991291       -26.9744 
  48   2.0000      -0.985405       -26.8142 
  49   2.0000      -0.982609       -26.7381 
  50   2.0000      -0.980382       -26.6775 
  51   2.0000      -0.956704       -26.0332 
  52   2.0000      -0.937905       -25.5217 
  53   2.0000      -0.926001       -25.1978 
  54   2.0000      -0.924418       -25.1547 
  55   2.0000      -0.881120       -23.9765 
  56   2.0000      -0.877027       -23.8651 
  57   2.0000      -0.855173       -23.2705 
  58   2.0000      -0.815306       -22.1856 
  59   2.0000      -0.753799       -20.5119 
  60   2.0000      -0.746021       -20.3003 
  61   2.0000      -0.741517       -20.1777 
  62   2.0000      -0.730220       -19.8703 
  63   2.0000      -0.711326       -19.3562 
  64   2.0000      -0.702444       -19.1145 
  65   2.0000      -0.643313       -17.5054 
  66   2.0000      -0.638205       -17.3664 
  67   2.0000      -0.637291       -17.3416 
  68   2.0000      -0.630037       -17.1442 
  69   2.0000      -0.593871       -16.1601 
  70   2.0000      -0.592034       -16.1101 
  71   2.0000      -0.566689       -15.4204 
  72   2.0000      -0.557933       -15.1821 
  73   2.0000      -0.546144       -14.8613 
  74   2.0000      -0.537055       -14.6140 
  75   2.0000      -0.516983       -14.0678 
  76   2.0000      -0.507818       -13.8184 
  77   2.0000      -0.502429       -13.6718 
  78   2.0000      -0.500771       -13.6267 
  79   2.0000      -0.492793       -13.4096 
  80   2.0000      -0.486676       -13.2431 
  81   2.0000      -0.475087       -12.9278 
  82   2.0000      -0.469447       -12.7743 
  83   2.0000      -0.463432       -12.6106 
  84   2.0000      -0.455112       -12.3842 
  85   2.0000      -0.446537       -12.1509 
  86   2.0000      -0.444774       -12.1029 
  87   2.0000      -0.431862       -11.7516 
  88   2.0000      -0.427319       -11.6280 
  89   2.0000      -0.424425       -11.5492 
  90   2.0000      -0.421205       -11.4616 
  91   2.0000      -0.418970       -11.4007 
  92   2.0000      -0.404128       -10.9969 
  93   2.0000      -0.401291       -10.9197 
  94   2.0000      -0.392955       -10.6929 
  95   2.0000      -0.390775       -10.6335 
  96   2.0000      -0.388907       -10.5827 
  97   2.0000      -0.387855       -10.5541 
  98   2.0000      -0.381159       -10.3719 
  99   2.0000      -0.375035       -10.2052 
 100   2.0000      -0.368321       -10.0225 
 101   2.0000      -0.363618        -9.8945 
 102   2.0000      -0.362419        -9.8619 
 103   2.0000      -0.359018        -9.7694 
 104   2.0000      -0.356580        -9.7030 
 105   2.0000      -0.354353        -9.6424 
 106   2.0000      -0.346569        -9.4306 
 107   2.0000      -0.341664        -9.2971 
 108   2.0000      -0.338513        -9.2114 
 109   2.0000      -0.335469        -9.1286 
 110   2.0000      -0.331331        -9.0160 
 111   2.0000      -0.329512        -8.9665 
 112   2.0000      -0.318734        -8.6732 
 113   2.0000      -0.311067        -8.4646 
 114   2.0000      -0.306871        -8.3504 
 115   2.0000      -0.305056        -8.3010 
 116   2.0000      -0.299325        -8.1451 
 117   2.0000      -0.294801        -8.0219 
 118   2.0000      -0.292467        -7.9584 
 119   2.0000      -0.278333        -7.5738 
 120   2.0000      -0.261988        -7.1291 
 121   2.0000      -0.255776        -6.9600 
 122   2.0000      -0.250874        -6.8266 
 123   2.0000      -0.248580        -6.7642 
 124   2.0000      -0.242756        -6.6057 
 125   2.0000      -0.240115        -6.5339 
 126   2.0000      -0.236540        -6.4366 
 127   2.0000      -0.233783        -6.3616 
 128   2.0000      -0.231136        -6.2895 
 129   2.0000      -0.227917        -6.2019 
 130   2.0000      -0.227282        -6.1847 
 131   2.0000      -0.221690        -6.0325 
 132   2.0000      -0.220798        -6.0082 
 133   2.0000      -0.215719        -5.8700 
 134   2.0000      -0.205386        -5.5888 
 135   2.0000      -0.200776        -5.4634 
 136   2.0000      -0.196457        -5.3459 
 137   2.0000      -0.191885        -5.2214 
 138   2.0000      -0.180635        -4.9153 
 139   2.0000      -0.174212        -4.7406 
 140   2.0000      -0.171410        -4.6643 
 141   2.0000      -0.156453        -4.2573 
 142   2.0000      -0.142549        -3.8790 
 143   0.0000       0.028057         0.7635 
 144   0.0000       0.043999         1.1973 
 145   0.0000       0.052723         1.4347 
 146   0.0000       0.053408         1.4533 
 147   0.0000       0.077689         2.1140 
 148   0.0000       0.080589         2.1929 
 149   0.0000       0.082885         2.2554 
 150   0.0000       0.084706         2.3050 
 151   0.0000       0.086565         2.3556 
 152   0.0000       0.090945         2.4747 
 153   0.0000       0.101450         2.7606 
 154   0.0000       0.103641         2.8202 
 155   0.0000       0.108875         2.9627 
 156   0.0000       0.110663         3.0113 
 157   0.0000       0.115777         3.1505 
 158   0.0000       0.121679         3.3110 
 159   0.0000       0.124605         3.3907 
 160   0.0000       0.125923         3.4265 
 161   0.0000       0.126837         3.4514 
 162   0.0000       0.131211         3.5704 
 163   0.0000       0.133882         3.6431 
 164   0.0000       0.137236         3.7344 
 165   0.0000       0.137887         3.7521 
 166   0.0000       0.143678         3.9097 
 167   0.0000       0.145440         3.9576 
 168   0.0000       0.146495         3.9863 
 169   0.0000       0.148808         4.0493 
 170   0.0000       0.151219         4.1149 
 171   0.0000       0.153520         4.1775 
 172   0.0000       0.160875         4.3776 
 173   0.0000       0.164653         4.4804 
 174   0.0000       0.167580         4.5601 
 175   0.0000       0.168878         4.5954 
 176   0.0000       0.170324         4.6347 
 177   0.0000       0.170850         4.6491 
 178   0.0000       0.174351         4.7443 
 179   0.0000       0.176785         4.8106 
 180   0.0000       0.179734         4.8908 
 181   0.0000       0.181684         4.9439 
 182   0.0000       0.181846         4.9483 
 183   0.0000       0.183326         4.9886 
 184   0.0000       0.191405         5.2084 
 185   0.0000       0.191520         5.2115 
 186   0.0000       0.194362         5.2889 
 187   0.0000       0.195645         5.3238 
 188   0.0000       0.197837         5.3834 
 189   0.0000       0.198826         5.4103 
 190   0.0000       0.200109         5.4452 
 191   0.0000       0.202197         5.5021 
 192   0.0000       0.204803         5.5730 
 193   0.0000       0.206845         5.6285 
 194   0.0000       0.209481         5.7003 
 195   0.0000       0.210671         5.7327 
 196   0.0000       0.213011         5.7963 
 197   0.0000       0.214361         5.8331 
 198   0.0000       0.218425         5.9436 
 199   0.0000       0.219937         5.9848 
 200   0.0000       0.221437         6.0256 
 201   0.0000       0.223613         6.0848 
 202   0.0000       0.225185         6.1276 
 203   0.0000       0.226574         6.1654 
 204   0.0000       0.229264         6.2386 
 205   0.0000       0.231239         6.2923 
 206   0.0000       0.232275         6.3205 
 207   0.0000       0.235297         6.4028 
 208   0.0000       0.236876         6.4457 
 209   0.0000       0.238970         6.5027 
 210   0.0000       0.240872         6.5545 
 211   0.0000       0.244545         6.6544 
 212   0.0000       0.246776         6.7151 
 213   0.0000       0.250317         6.8115 
 214   0.0000       0.250694         6.8217 
 215   0.0000       0.252942         6.8829 
 216   0.0000       0.256856         6.9894 
 217   0.0000       0.258715         7.0400 
 218   0.0000       0.259313         7.0563 
 219   0.0000       0.261580         7.1179 
 220   0.0000       0.263027         7.1573 
 221   0.0000       0.264640         7.2012 
 222   0.0000       0.267435         7.2773 
 223   0.0000       0.268610         7.3093 
 224   0.0000       0.270165         7.3516 
 225   0.0000       0.272391         7.4121 
 226   0.0000       0.273157         7.4330 
 227   0.0000       0.273954         7.4547 
 228   0.0000       0.277627         7.5546 
 229   0.0000       0.277950         7.5634 
 230   0.0000       0.280758         7.6398 
 231   0.0000       0.281961         7.6725 
 232   0.0000       0.285246         7.7619 
 233   0.0000       0.287634         7.8269 
 234   0.0000       0.288491         7.8502 
 235   0.0000       0.289219         7.8700 
 236   0.0000       0.289998         7.8913 
 237   0.0000       0.291179         7.9234 
 238   0.0000       0.294276         8.0077 
 239   0.0000       0.297367         8.0918 
 240   0.0000       0.298064         8.1107 
 241   0.0000       0.301761         8.2113 
 242   0.0000       0.302818         8.2401 
 243   0.0000       0.303488         8.2583 
 244   0.0000       0.305249         8.3063 
 245   0.0000       0.306995         8.3538 
 246   0.0000       0.311232         8.4691 
 247   0.0000       0.311794         8.4843 
 248   0.0000       0.312969         8.5163 
 249   0.0000       0.315888         8.5958 
 250   0.0000       0.317865         8.6495 
 251   0.0000       0.319023         8.6811 
 252   0.0000       0.319764         8.7012 
 253   0.0000       0.322099         8.7648 
 254   0.0000       0.325599         8.8600 
 255   0.0000       0.327066         8.8999 
 256   0.0000       0.327629         8.9152 
 257   0.0000       0.328136         8.9290 
 258   0.0000       0.330356         8.9894 
 259   0.0000       0.332222         9.0402 
 260   0.0000       0.334640         9.1060 
 261   0.0000       0.335145         9.1198 
 262   0.0000       0.336452         9.1553 
 263   0.0000       0.337976         9.1968 
 264   0.0000       0.340310         9.2603 
 265   0.0000       0.341224         9.2852 
 266   0.0000       0.344167         9.3653 
 267   0.0000       0.345626         9.4050 
 268   0.0000       0.347900         9.4668 
 269   0.0000       0.350086         9.5263 
 270   0.0000       0.352054         9.5799 
 271   0.0000       0.353600         9.6220 
 272   0.0000       0.355288         9.6679 
 273   0.0000       0.357006         9.7146 
 274   0.0000       0.357419         9.7259 
 275   0.0000       0.360315         9.8047 
 276   0.0000       0.361458         9.8358 
 277   0.0000       0.364207         9.9106 
 278   0.0000       0.366246         9.9660 
 279   0.0000       0.366497         9.9729 
 280   0.0000       0.369348        10.0505 
 281   0.0000       0.370419        10.0796 
 282   0.0000       0.372809        10.1446 
 283   0.0000       0.374746        10.1973 
 284   0.0000       0.375629        10.2214 
 285   0.0000       0.377398        10.2695 
 286   0.0000       0.381307        10.3759 
 287   0.0000       0.382567        10.4102 
 288   0.0000       0.384674        10.4675 
 289   0.0000       0.385592        10.4925 
 290   0.0000       0.387262        10.5379 
 291   0.0000       0.389887        10.6094 
 292   0.0000       0.390994        10.6395 
 293   0.0000       0.393051        10.6955 
 294   0.0000       0.394663        10.7393 
 295   0.0000       0.394906        10.7459 
 296   0.0000       0.396936        10.8012 
 297   0.0000       0.398693        10.8490 
 298   0.0000       0.399788        10.8788 
 299   0.0000       0.402032        10.9399 
 300   0.0000       0.402528        10.9533 
 301   0.0000       0.404438        11.0053 
 302   0.0000       0.406476        11.0608 
 303   0.0000       0.407896        11.0994 
 304   0.0000       0.409342        11.1388 
 305   0.0000       0.410546        11.1715 
 306   0.0000       0.412818        11.2333 
 307   0.0000       0.416358        11.3297 
 308   0.0000       0.418118        11.3776 
 309   0.0000       0.419230        11.4078 
 310   0.0000       0.419675        11.4199 
 311   0.0000       0.422823        11.5056 
 312   0.0000       0.426616        11.6088 
 313   0.0000       0.426949        11.6179 
 314   0.0000       0.429865        11.6972 
 315   0.0000       0.433168        11.7871 
 316   0.0000       0.434146        11.8137 
 317   0.0000       0.435694        11.8558 
 318   0.0000       0.436943        11.8898 
 319   0.0000       0.437429        11.9031 
 320   0.0000       0.439176        11.9506 
 321   0.0000       0.441309        12.0086 
 322   0.0000       0.443037        12.0556 
 323   0.0000       0.445329        12.1180 
 324   0.0000       0.449775        12.2390 
 325   0.0000       0.452327        12.3084 
 326   0.0000       0.454123        12.3573 
 327   0.0000       0.455028        12.3819 
 328   0.0000       0.457475        12.4485 
 329   0.0000       0.458030        12.4636 
 330   0.0000       0.458661        12.4808 
 331   0.0000       0.461585        12.5604 
 332   0.0000       0.463665        12.6170 
 333   0.0000       0.464400        12.6370 
 334   0.0000       0.466309        12.6889 
 335   0.0000       0.469987        12.7890 
 336   0.0000       0.471865        12.8401 
 337   0.0000       0.472442        12.8558 
 338   0.0000       0.473291        12.8789 
 339   0.0000       0.475420        12.9368 
 340   0.0000       0.476498        12.9662 
 341   0.0000       0.481460        13.1012 
 342   0.0000       0.481898        13.1131 
 343   0.0000       0.483417        13.1545 
 344   0.0000       0.485058        13.1991 
 345   0.0000       0.488770        13.3001 
 346   0.0000       0.489340        13.3156 
 347   0.0000       0.492233        13.3943 
 348   0.0000       0.494526        13.4567 
 349   0.0000       0.495252        13.4765 
 350   0.0000       0.496299        13.5050 
 351   0.0000       0.497719        13.5436 
 352   0.0000       0.503315        13.6959 
 353   0.0000       0.504726        13.7343 
 354   0.0000       0.506398        13.7798 
 355   0.0000       0.506775        13.7900 
 356   0.0000       0.509455        13.8630 
 357   0.0000       0.512883        13.9563 
 358   0.0000       0.515692        14.0327 
 359   0.0000       0.516887        14.0652 
 360   0.0000       0.518746        14.1158 
 361   0.0000       0.520145        14.1539 
 362   0.0000       0.523201        14.2370 
 363   0.0000       0.525604        14.3024 
 364   0.0000       0.526754        14.3337 
 365   0.0000       0.528869        14.3913 
 366   0.0000       0.531046        14.4505 
 367   0.0000       0.533851        14.5268 
 368   0.0000       0.534297        14.5390 
 369   0.0000       0.537319        14.6212 
 370   0.0000       0.541237        14.7278 
 371   0.0000       0.541469        14.7341 
 372   0.0000       0.544486        14.8162 
 373   0.0000       0.546818        14.8797 
 374   0.0000       0.547516        14.8987 
 375   0.0000       0.550736        14.9863 
 376   0.0000       0.551207        14.9991 
 377   0.0000       0.553193        15.0531 
 378   0.0000       0.555624        15.1193 
 379   0.0000       0.557793        15.1783 
 380   0.0000       0.559947        15.2369 
 381   0.0000       0.560637        15.2557 
 382   0.0000       0.561712        15.2850 
 383   0.0000       0.563827        15.3425 
 384   0.0000       0.566375        15.4118 
 385   0.0000       0.568203        15.4616 
 386   0.0000       0.570121        15.5138 
 387   0.0000       0.571512        15.5516 
 388   0.0000       0.573852        15.6153 
 389   0.0000       0.576104        15.6766 
 390   0.0000       0.577343        15.7103 
 391   0.0000       0.579754        15.7759 
 392   0.0000       0.580887        15.8067 
 393   0.0000       0.584976        15.9180 
 394   0.0000       0.586739        15.9660 
 395   0.0000       0.590927        16.0799 
 396   0.0000       0.591691        16.1007 
 397   0.0000       0.595227        16.1969 
 398   0.0000       0.595858        16.2141 
 399   0.0000       0.596894        16.2423 
 400   0.0000       0.600003        16.3269 
 401   0.0000       0.601902        16.3786 
 402   0.0000       0.604831        16.4583 
 403   0.0000       0.606840        16.5130 
 404   0.0000       0.607623        16.5343 
 405   0.0000       0.609011        16.5720 
 406   0.0000       0.609906        16.5964 
 407   0.0000       0.612650        16.6710 
 408   0.0000       0.613577        16.6963 
 409   0.0000       0.616505        16.7760 
 410   0.0000       0.618545        16.8315 
 411   0.0000       0.621214        16.9041 
 412   0.0000       0.623342        16.9620 
 413   0.0000       0.625549        17.0220 
 414   0.0000       0.627188        17.0667 
 415   0.0000       0.627815        17.0837 
 416   0.0000       0.631044        17.1716 
 417   0.0000       0.631994        17.1974 
 418   0.0000       0.632789        17.2191 
 419   0.0000       0.635318        17.2879 
 420   0.0000       0.637676        17.3520 
 421   0.0000       0.640460        17.4278 
 422   0.0000       0.641964        17.4687 
 423   0.0000       0.642997        17.4968 
 424   0.0000       0.644234        17.5305 
 425   0.0000       0.645181        17.5563 
 426   0.0000       0.649584        17.6761 
 427   0.0000       0.651477        17.7276 
 428   0.0000       0.654618        17.8131 
 429   0.0000       0.656032        17.8515 
 430   0.0000       0.656310        17.8591 
 431   0.0000       0.657259        17.8849 
 432   0.0000       0.662251        18.0208 
 433   0.0000       0.665314        18.1041 
 434   0.0000       0.667224        18.1561 
 435   0.0000       0.669185        18.2095 
 436   0.0000       0.670129        18.2351 
 437   0.0000       0.671763        18.2796 
 438   0.0000       0.673167        18.3178 
 439   0.0000       0.675785        18.3891 
 440   0.0000       0.677840        18.4450 
 441   0.0000       0.678568        18.4648 
 442   0.0000       0.680247        18.5105 
 443   0.0000       0.683724        18.6051 
 444   0.0000       0.684593        18.6287 
 445   0.0000       0.687177        18.6990 
 446   0.0000       0.688402        18.7324 
 447   0.0000       0.693480        18.8705 
 448   0.0000       0.694841        18.9076 
 449   0.0000       0.696147        18.9431 
 450   0.0000       0.697702        18.9854 
 451   0.0000       0.699331        19.0298 
 452   0.0000       0.700477        19.0609 
 453   0.0000       0.701915        19.1001 
 454   0.0000       0.704490        19.1702 
 455   0.0000       0.705685        19.2027 
 456   0.0000       0.706707        19.2305 
 457   0.0000       0.707497        19.2520 
 458   0.0000       0.711612        19.3639 
 459   0.0000       0.713256        19.4087 
 460   0.0000       0.715195        19.4614 
 461   0.0000       0.717005        19.5107 
 462   0.0000       0.718975        19.5643 
 463   0.0000       0.720714        19.6116 
 464   0.0000       0.721635        19.6367 
 465   0.0000       0.723256        19.6808 
 466   0.0000       0.725429        19.7399 
 467   0.0000       0.727331        19.7917 
 468   0.0000       0.730647        19.8819 
 469   0.0000       0.730933        19.8897 
 470   0.0000       0.733341        19.9552 
 471   0.0000       0.734040        19.9743 
 472   0.0000       0.738798        20.1037 
 473   0.0000       0.741143        20.1675 
 474   0.0000       0.742377        20.2011 
 475   0.0000       0.744873        20.2690 
 476   0.0000       0.746512        20.3136 
 477   0.0000       0.749529        20.3957 
 478   0.0000       0.751220        20.4417 
 479   0.0000       0.752619        20.4798 
 480   0.0000       0.753359        20.4999 
 481   0.0000       0.755301        20.5528 
 482   0.0000       0.757126        20.6024 
 483   0.0000       0.757789        20.6205 
 484   0.0000       0.761927        20.7331 
 485   0.0000       0.765306        20.8250 
 486   0.0000       0.767101        20.8739 
 487   0.0000       0.769079        20.9277 
 488   0.0000       0.771282        20.9876 
 489   0.0000       0.773583        21.0503 
 490   0.0000       0.774344        21.0710 
 491   0.0000       0.776394        21.1268 
 492   0.0000       0.781487        21.2653 
 493   0.0000       0.782546        21.2942 
 494   0.0000       0.784502        21.3474 
 495   0.0000       0.785565        21.3763 
 496   0.0000       0.788333        21.4516 
 497   0.0000       0.790999        21.5242 
 498   0.0000       0.792069        21.5533 
 499   0.0000       0.795133        21.6367 
 500   0.0000       0.796563        21.6756 
 501   0.0000       0.798926        21.7399 
 502   0.0000       0.799988        21.7688 
 503   0.0000       0.801545        21.8111 
 504   0.0000       0.803824        21.8732 
 505   0.0000       0.806391        21.9430 
 506   0.0000       0.808586        22.0027 
 507   0.0000       0.812160        22.1000 
 508   0.0000       0.816252        22.2113 
 509   0.0000       0.817811        22.2538 
 510   0.0000       0.820070        22.3152 
 511   0.0000       0.821310        22.3490 
 512   0.0000       0.825601        22.4657 
 513   0.0000       0.827626        22.5208 
 514   0.0000       0.828761        22.5517 
 515   0.0000       0.830680        22.6039 
 516   0.0000       0.832190        22.6450 
 517   0.0000       0.833659        22.6850 
 518   0.0000       0.837805        22.7978 
 519   0.0000       0.840250        22.8644 
 520   0.0000       0.841070        22.8867 
 521   0.0000       0.843102        22.9420 
 522   0.0000       0.846280        23.0284 
 523   0.0000       0.847776        23.0692 
 524   0.0000       0.850625        23.1467 
 525   0.0000       0.851358        23.1666 
 526   0.0000       0.851954        23.1828 
 527   0.0000       0.855990        23.2927 
 528   0.0000       0.858488        23.3606 
 529   0.0000       0.859894        23.3989 
 530   0.0000       0.861842        23.4519 
 531   0.0000       0.862912        23.4810 
 532   0.0000       0.864159        23.5150 
 533   0.0000       0.867457        23.6047 
 534   0.0000       0.869497        23.6602 
 535   0.0000       0.870177        23.6787 
 536   0.0000       0.874497        23.7963 
 537   0.0000       0.877537        23.8790 
 538   0.0000       0.879025        23.9195 
 539   0.0000       0.881987        24.0001 
 540   0.0000       0.882797        24.0221 
 541   0.0000       0.885265        24.0893 
 542   0.0000       0.888114        24.1668 
 543   0.0000       0.888782        24.1850 
 544   0.0000       0.890513        24.2321 
 545   0.0000       0.894623        24.3439 
 546   0.0000       0.897645        24.4262 
 547   0.0000       0.899932        24.4884 
 548   0.0000       0.903707        24.5911 
 549   0.0000       0.904441        24.6111 
 550   0.0000       0.907526        24.6950 
 551   0.0000       0.909715        24.7546 
 552   0.0000       0.910676        24.7807 
 553   0.0000       0.913343        24.8533 
 554   0.0000       0.914030        24.8720 
 555   0.0000       0.916784        24.9470 
 556   0.0000       0.919507        25.0211 
 557   0.0000       0.920879        25.0584 
 558   0.0000       0.921811        25.0838 
 559   0.0000       0.923777        25.1372 
 560   0.0000       0.925688        25.1892 
 561   0.0000       0.927862        25.2484 
 562   0.0000       0.932661        25.3790 
 563   0.0000       0.936181        25.4748 
 564   0.0000       0.936637        25.4872 
 565   0.0000       0.938888        25.5484 
 566   0.0000       0.941702        25.6250 
 567   0.0000       0.944967        25.7139 
 568   0.0000       0.948121        25.7997 
 569   0.0000       0.952768        25.9261 
 570   0.0000       0.954823        25.9820 
 571   0.0000       0.955693        26.0057 
 572   0.0000       0.957417        26.0526 
 573   0.0000       0.961484        26.1633 
 574   0.0000       0.963706        26.2238 
 575   0.0000       0.966453        26.2985 
 576   0.0000       0.968290        26.3485 
 577   0.0000       0.971309        26.4307 
 578   0.0000       0.974055        26.5054 
 579   0.0000       0.977518        26.5996 
 580   0.0000       0.978175        26.6175 
 581   0.0000       0.981125        26.6978 
 582   0.0000       0.983450        26.7610 
 583   0.0000       0.987599        26.8739 
 584   0.0000       0.991437        26.9784 
 585   0.0000       0.993686        27.0396 
 586   0.0000       0.995381        27.0857 
 587   0.0000       0.998831        27.1796 
 588   0.0000       1.002511        27.2797 
 589   0.0000       1.005673        27.3658 
 590   0.0000       1.007859        27.4252 
 591   0.0000       1.012031        27.5388 
 592   0.0000       1.012875        27.5617 
 593   0.0000       1.015778        27.6407 
 594   0.0000       1.018456        27.7136 
 595   0.0000       1.021923        27.8079 
 596   0.0000       1.023372        27.8474 
 597   0.0000       1.025925        27.9168 
 598   0.0000       1.028424        27.9848 
 599   0.0000       1.032764        28.1029 
 600   0.0000       1.034767        28.1574 
 601   0.0000       1.038643        28.2629 
 602   0.0000       1.040725        28.3196 
 603   0.0000       1.042697        28.3732 
 604   0.0000       1.045321        28.4446 
 605   0.0000       1.048624        28.5345 
 606   0.0000       1.051040        28.6003 
 607   0.0000       1.053641        28.6710 
 608   0.0000       1.055680        28.7265 
 609   0.0000       1.057689        28.7812 
 610   0.0000       1.061456        28.8837 
 611   0.0000       1.065372        28.9902 
 612   0.0000       1.067635        29.0518 
 613   0.0000       1.071190        29.1486 
 614   0.0000       1.073930        29.2231 
 615   0.0000       1.075068        29.2541 
 616   0.0000       1.079512        29.3750 
 617   0.0000       1.083887        29.4941 
 618   0.0000       1.088341        29.6153 
 619   0.0000       1.092116        29.7180 
 620   0.0000       1.095371        29.8066 
 621   0.0000       1.100547        29.9474 
 622   0.0000       1.101787        29.9811 
 623   0.0000       1.103503        30.0278 
 624   0.0000       1.106481        30.1089 
 625   0.0000       1.107585        30.1389 
 626   0.0000       1.112365        30.2690 
 627   0.0000       1.113434        30.2981 
 628   0.0000       1.114725        30.3332 
 629   0.0000       1.119777        30.4707 
 630   0.0000       1.123705        30.5776 
 631   0.0000       1.127767        30.6881 
 632   0.0000       1.133657        30.8484 
 633   0.0000       1.136074        30.9141 
 634   0.0000       1.137142        30.9432 
 635   0.0000       1.141166        31.0527 
 636   0.0000       1.143030        31.1034 
 637   0.0000       1.146977        31.2108 
 638   0.0000       1.150188        31.2982 
 639   0.0000       1.154560        31.4172 
 640   0.0000       1.155606        31.4456 
 641   0.0000       1.157634        31.5008 
 642   0.0000       1.160824        31.5876 
 643   0.0000       1.162373        31.6298 
 644   0.0000       1.166754        31.7490 
 645   0.0000       1.170626        31.8543 
 646   0.0000       1.171053        31.8660 
 647   0.0000       1.174825        31.9686 
 648   0.0000       1.176554        32.0157 
 649   0.0000       1.182875        32.1877 
 650   0.0000       1.185604        32.2619 
 651   0.0000       1.188578        32.3429 
 652   0.0000       1.192895        32.4603 
 653   0.0000       1.196242        32.5514 
 654   0.0000       1.199535        32.6410 
 655   0.0000       1.203013        32.7356 
 656   0.0000       1.203856        32.7586 
 657   0.0000       1.205575        32.8054 
 658   0.0000       1.207918        32.8691 
 659   0.0000       1.213682        33.0260 
 660   0.0000       1.218749        33.1638 
 661   0.0000       1.222544        33.2671 
 662   0.0000       1.225474        33.3468 
 663   0.0000       1.228625        33.4326 
 664   0.0000       1.229651        33.4605 
 665   0.0000       1.232950        33.5503 
 666   0.0000       1.236200        33.6387 
 667   0.0000       1.237211        33.6662 
 668   0.0000       1.238904        33.7123 
 669   0.0000       1.241706        33.7885 
 670   0.0000       1.247172        33.9373 
 671   0.0000       1.249470        33.9998 
 672   0.0000       1.253576        34.1115 
 673   0.0000       1.253690        34.1146 
 674   0.0000       1.258565        34.2473 
 675   0.0000       1.262864        34.3643 
 676   0.0000       1.265741        34.4426 
 677   0.0000       1.272365        34.6228 
 678   0.0000       1.272841        34.6358 
 679   0.0000       1.279324        34.8122 
 680   0.0000       1.279905        34.8280 
 681   0.0000       1.285976        34.9932 
 682   0.0000       1.288216        35.0541 
 683   0.0000       1.292071        35.1590 
 684   0.0000       1.292899        35.1816 
 685   0.0000       1.296846        35.2890 
 686   0.0000       1.301850        35.4251 
 687   0.0000       1.303273        35.4639 
 688   0.0000       1.304391        35.4943 
 689   0.0000       1.307564        35.5806 
 690   0.0000       1.311179        35.6790 
 691   0.0000       1.314301        35.7639 
 692   0.0000       1.319769        35.9128 
 693   0.0000       1.324514        36.0419 
 694   0.0000       1.326527        36.0966 
 695   0.0000       1.330697        36.2101 
 696   0.0000       1.334331        36.3090 
 697   0.0000       1.336389        36.3650 
 698   0.0000       1.338481        36.4219 
 699   0.0000       1.343072        36.5469 
 700   0.0000       1.347292        36.6617 
 701   0.0000       1.349688        36.7269 
 702   0.0000       1.356397        36.9094 
 703   0.0000       1.358344        36.9624 
 704   0.0000       1.359556        36.9954 
 705   0.0000       1.363414        37.1004 
 706   0.0000       1.363540        37.1038 
 707   0.0000       1.367562        37.2133 
 708   0.0000       1.371534        37.3213 
 709   0.0000       1.372869        37.3577 
 710   0.0000       1.380014        37.5521 
 711   0.0000       1.383265        37.6406 
 712   0.0000       1.389658        37.8145 
 713   0.0000       1.393064        37.9072 
 714   0.0000       1.396434        37.9989 
 715   0.0000       1.398936        38.0670 
 716   0.0000       1.400149        38.1000 
 717   0.0000       1.404741        38.2249 
 718   0.0000       1.408328        38.3225 
 719   0.0000       1.412037        38.4235 
 720   0.0000       1.415878        38.5280 
 721   0.0000       1.417544        38.5733 
 722   0.0000       1.419587        38.6289 
 723   0.0000       1.428258        38.8649 
 724   0.0000       1.429508        38.8989 
 725   0.0000       1.431868        38.9631 
 726   0.0000       1.436517        39.0896 
 727   0.0000       1.439464        39.1698 
 728   0.0000       1.444223        39.2993 
 729   0.0000       1.445713        39.3399 
 730   0.0000       1.448813        39.4242 
 731   0.0000       1.449528        39.4437 
 732   0.0000       1.453237        39.5446 
 733   0.0000       1.459168        39.7060 
 734   0.0000       1.462201        39.7885 
 735   0.0000       1.466430        39.9036 
 736   0.0000       1.469343        39.9829 
 737   0.0000       1.473144        40.0863 
 738   0.0000       1.474135        40.1133 
 739   0.0000       1.476811        40.1861 
 740   0.0000       1.481732        40.3200 
 741   0.0000       1.482056        40.3288 
 742   0.0000       1.485477        40.4219 
 743   0.0000       1.493752        40.6471 
 744   0.0000       1.498880        40.7866 
 745   0.0000       1.500544        40.8319 
 746   0.0000       1.508287        41.0426 
 747   0.0000       1.510015        41.0896 
 748   0.0000       1.512368        41.1536 
 749   0.0000       1.519843        41.3570 
 750   0.0000       1.525571        41.5129 
[...]
      f-3     :     0.044287
 50 O s       :     3.337884  s :     3.337884
      pz      :     1.403676  p :     4.356309
      px      :     1.501760
      py      :     1.450874
      dz2     :     0.026458  d :     0.240587
      dxz     :     0.024081
      dyz     :     0.048075
      dx2y2   :     0.074127
      dxy     :     0.067845
      f0      :     0.000540  f :     0.005909
      f+1     :     0.000320
      f-1     :     0.000803
      f+2     :     0.000273
      f-2     :     0.000692
      f+3     :     0.001782
      f-3     :     0.001499
 51 C s       :     2.612408  s :     2.612408
      pz      :     0.885255  p :     2.508660
      px      :     0.827094
      py      :     0.796311
      dz2     :     0.199781  d :     1.042245
      dxz     :     0.170304
      dyz     :     0.208850
      dx2y2   :     0.250674
      dxy     :     0.212637
      f0      :     0.011604  f :     0.085184
      f+1     :     0.010430
      f-1     :     0.010646
      f+2     :     0.009949
      f-2     :     0.010201
      f+3     :     0.014637
      f-3     :     0.017716
 52 H s       :     0.637255  s :     0.637255
      pz      :     0.062143  p :     0.194726
      px      :     0.049034
      py      :     0.083548
 53 C s       :     2.621659  s :     2.621659
      pz      :     0.875278  p :     2.505665
      px      :     0.878018
      py      :     0.752369
      dz2     :     0.178791  d :     1.023377
      dxz     :     0.182816
      dyz     :     0.224625
      dx2y2   :     0.222906
      dxy     :     0.214240
      f0      :     0.007548  f :     0.084615
      f+1     :     0.006331
      f-1     :     0.015709
      f+2     :     0.016449
      f-2     :     0.009382
      f+3     :     0.016304
      f-3     :     0.012892
 54 H s       :     0.657749  s :     0.657749
      pz      :     0.079620  p :     0.188155
      px      :     0.067023
      py      :     0.041512
 55 O s       :     3.284095  s :     3.284095
      pz      :     1.608673  p :     4.419607
      px      :     1.493899
      py      :     1.317036
      dz2     :     0.037872  d :     0.294313
      dxz     :     0.024824
      dyz     :     0.081932
      dx2y2   :     0.065492
      dxy     :     0.084193
      f0      :     0.000405  f :     0.004444
      f+1     :     0.000054
      f-1     :     0.000707
      f+2     :     0.000817
      f-2     :     0.000789
      f+3     :     0.000547
      f-3     :     0.001124
 56 H s       :     0.564743  s :     0.564743
      pz      :     0.097159  p :     0.337306
      px      :     0.153840
      py      :     0.086307
 57 O s       :     3.274224  s :     3.274224
      pz      :     1.328455  p :     4.422748
      px      :     1.585983
      py      :     1.508310
      dz2     :     0.075795  d :     0.304481
      dxz     :     0.031462
      dyz     :     0.055607
      dx2y2   :     0.074688
      dxy     :     0.066928
      f0      :     0.001568  f :     0.004416
      f+1     :     0.000183
      f-1     :     0.000330
      f+2     :     0.000197
      f-2     :     0.000612
      f+3     :     0.000742
      f-3     :     0.000784
 58 H s       :     0.585693  s :     0.585693
      pz      :     0.143807  p :     0.297309
      px      :     0.079410
      py      :     0.074093


                      *****************************
                      * MAYER POPULATION ANALYSIS *
                      *****************************

  NA   - Mulliken gross atomic population
  ZA   - Total nuclear charge
  QA   - Mulliken gross atomic charge
  VA   - Mayer's total valence
  BVA  - Mayer's bonded valence
  FA   - Mayer's free valence

  ATOM       NA         ZA         QA         VA         BVA        FA
  0 H      0.7384     1.0000     0.2616     0.9046     0.9046    -0.0000
  1 O      8.5046     8.0000    -0.5046     2.0250     2.0250    -0.0000
  2 C      6.6402     6.0000    -0.6402     3.8042     3.8042    -0.0000
  3 H      0.7931     1.0000     0.2069     0.9255     0.9255    -0.0000
  4 H      0.7222     1.0000     0.2778     0.8646     0.8646    -0.0000
  5 C      5.2655     6.0000     0.7345     3.8400     3.8400    -0.0000
  6 H      1.1706     1.0000    -0.1706     0.8410     0.8410    -0.0000
  7 O      8.4364     8.0000    -0.4364     1.6603     1.6603    -0.0000
  8 C      6.8500     6.0000    -0.8500     3.5143     3.5143    -0.0000
  9 H      0.6612     1.0000     0.3388     0.6644     0.6644     0.0000
 10 N      6.6865     7.0000     0.3135     2.9255     2.9255    -0.0000
 11 C      5.4449     6.0000     0.5551     2.3617     2.3617    -0.0000
 12 H      0.5590     1.0000     0.4410     0.7025     0.7025    -0.0000
 13 C      6.9714     6.0000    -0.9714     2.7972     2.7972     0.0000
 14 H      0.6828     1.0000     0.3172     0.7929     0.7929    -0.0000
 15 C      5.8496     6.0000     0.1504     3.6591     3.6591    -0.0000
 16 O      8.5986     8.0000    -0.5986     1.7041     1.7041     0.0000
 17 N      6.7475     7.0000     0.2525     3.1830     3.1830    -0.0000
 18 H      0.7926     1.0000     0.2074     0.9898     0.9898    -0.0000
 19 C      5.8881     6.0000     0.1119     3.4902     3.4902    -0.0000
 20 O      8.5619     8.0000    -0.5619     1.8389     1.8389    -0.0000
 21 C      5.6877     6.0000     0.3123     3.6287     3.6287     0.0000
 22 H      0.7181     1.0000     0.2819     0.5525     0.5525     0.0000
 23 C      5.4858     6.0000     0.5142     3.7319     3.7319     0.0000
 24 H      0.9458     1.0000     0.0542     0.9081     0.9081     0.0000
 25 O      8.6211     8.0000    -0.6211     1.4982     1.4982     0.0000
 26 H      0.6553     1.0000     0.3447     0.9122     0.9122     0.0000
 27 O      8.1053     8.0000    -0.1053     2.1303     2.1303     0.0000
 28 P     14.6307    15.0000     0.3693     4.6968     4.6968     0.0000
 29 O      8.7933     8.0000    -0.7933     1.7099     1.7099     0.0000
 30 O      8.8354     8.0000    -0.8354     1.6414     1.6414    -0.0000
 31 O      8.1811     8.0000    -0.1811     1.8545     1.8545     0.0000
 32 C      6.5853     6.0000    -0.5853     4.2712     4.2712     0.0000
 33 H      0.9430     1.0000     0.0570     1.0647     1.0647     0.0000
 34 H      0.7471     1.0000     0.2529     0.7488     0.7488     0.0000
 35 C      5.4109     6.0000     0.5891     4.3929     4.3929     0.0000
 36 H      0.9750     1.0000     0.0250     0.5020     0.5020     0.0000
 37 O      8.3828     8.0000    -0.3828     1.7607     1.7607     0.0000
 38 C      6.3977     6.0000    -0.3977     4.0661     4.0661     0.0000
 39 H      0.9658     1.0000     0.0342     0.8502     0.8502    -0.0000
 40 N      6.6452     7.0000     0.3548     3.1382     3.1382    -0.0000
 41 C      6.7046     6.0000    -0.7046     0.6227     0.6227    -0.0000
 42 H     -0.4489     1.0000     1.4489    -1.6908    -1.6908    -0.0000
 43 C      6.2398     6.0000    -0.2398     2.4443     2.4443     0.0000
 44 H      0.4295     1.0000     0.5705     0.5926     0.5926     0.0000
 45 C      6.6388     6.0000    -0.6388     2.8085     2.8085    -0.0000
 46 O      8.5849     8.0000    -0.5849     1.7143     1.7143    -0.0000
 47 N      6.7291     7.0000     0.2709     3.2124     3.2124     0.0000
 48 H      0.8498     1.0000     0.1502     1.0486     1.0486    -0.0000
 49 C      5.8558     6.0000     0.1442     3.4906     3.4906    -0.0000
 50 O      8.6159     8.0000    -0.6159     1.7517     1.7517    -0.0000
 51 C      5.9882     6.0000     0.0118     4.1576     4.1576     0.0000
 52 H      0.5938     1.0000     0.4062     0.6738     0.6738    -0.0000
 53 C      5.5249     6.0000     0.4751     3.7568     3.7568     0.0000
 54 H      0.9834     1.0000     0.0166     1.0363     1.0363    -0.0000
 55 O      8.5544     8.0000    -0.5544     1.6597     1.6597     0.0000
 56 H      0.6103     1.0000     0.3897     0.8181     0.8181    -0.0000
 57 O      8.5969     8.0000    -0.5969     1.7037     1.7037     0.0000
 58 H      0.6713     1.0000     0.3287     0.8976     0.8976     0.0000

  Mayer bond orders larger than 0.1
B(  0-H ,  1-O ) :   0.8993 B(  1-O ,  2-C ) :   0.9277 B(  1-O ,  5-C ) :  -0.1324 
B(  1-O , 21-C ) :   0.1695 B(  1-O , 27-O ) :  -0.1036 B(  2-C ,  3-H ) :   0.9093 
B(  2-C ,  4-H ) :   0.9070 B(  2-C ,  5-C ) :   0.6724 B(  2-C , 21-C ) :   0.3942 
B(  2-C , 22-H ) :  -0.1038 B(  2-C , 38-C ) :   0.1133 B(  2-C , 41-C ) :  -0.2191 
B(  2-C , 45-C ) :   0.2902 B(  2-C , 54-H ) :  -0.1919 B(  3-H , 41-C ) :   0.2513 
B(  3-H , 43-C ) :  -0.1356 B(  3-H , 45-C ) :  -0.1026 B(  4-H , 41-C ) :  -0.1178 
B(  4-H , 45-C ) :   0.1481 B(  5-C ,  6-H ) :   0.9342 B(  5-C ,  7-O ) :   0.7000 
B(  5-C ,  8-C ) :   0.3095 B(  5-C , 21-C ) :   0.5818 B(  5-C , 23-C ) :   0.1825 
B(  5-C , 27-O ) :   0.5390 B(  5-C , 43-C ) :  -0.2767 B(  5-C , 45-C ) :   0.2203 
B(  7-O ,  8-C ) :   0.8042 B(  7-O , 10-N ) :   0.1072 B(  8-C ,  9-H ) :   0.3754 
B(  8-C , 10-N ) :   1.0687 B(  8-C , 11-C ) :  -0.5138 B(  8-C , 15-C ) :   0.1060 
B(  8-C , 19-C ) :  -0.2533 B(  8-C , 23-C ) :   1.1685 B(  8-C , 24-H ) :   0.1015 
B(  8-C , 27-O ) :   0.1678 B(  8-C , 41-C ) :  -0.2520 B(  8-C , 43-C ) :   0.8014 
B(  8-C , 45-C ) :  -0.3403 B(  8-C , 53-C ) :   0.1249 B(  9-H , 10-N ) :  -0.1210 
B(  9-H , 11-C ) :   0.1556 B(  9-H , 20-O ) :   0.1788 B( 10-N , 11-C ) :   0.9687 
B( 10-N , 19-C ) :   0.8993 B( 10-N , 23-C ) :   0.1314 B( 10-N , 41-C ) :  -0.2552 
B( 10-N , 42-H ) :   0.2491 B( 10-N , 43-C ) :   0.2443 B( 10-N , 45-C ) :  -0.2222 
B( 11-C , 12-H ) :   0.7458 B( 11-C , 13-C ) :   0.9013 B( 11-C , 21-C ) :   0.1159 
B( 11-C , 24-H ) :   0.1488 B( 11-C , 32-C ) :  -0.2183 B( 11-C , 35-C ) :   0.2127 
B( 11-C , 38-C ) :  -0.2476 B( 11-C , 40-N ) :  -0.3402 B( 11-C , 41-C ) :   3.0549 
B( 11-C , 43-C ) :  -4.1211 B( 11-C , 45-C ) :   1.4046 B( 11-C , 47-N ) :  -0.1446 
B( 11-C , 49-C ) :   0.1428 B( 11-C , 51-C ) :   0.1362 B( 11-C , 52-H ) :  -0.1612 
B( 11-C , 53-C ) :   0.1686 B( 12-H , 32-C ) :  -0.1765 B( 12-H , 35-C ) :   0.1757 
B( 12-H , 38-C ) :   0.1989 B( 12-H , 40-N ) :   0.4857 B( 12-H , 41-C ) :  -3.3295 
B( 12-H , 42-H ) :   0.2247 B( 12-H , 43-C ) :   4.9213 B( 12-H , 45-C ) :  -2.4246 
B( 12-H , 47-N ) :   0.1658 B( 12-H , 49-C ) :  -0.1122 B( 13-C , 14-H ) :   0.9351 
B( 13-C , 15-C ) :   1.0624 B( 13-C , 27-O ) :  -0.1725 B( 13-C , 32-C ) :   0.5224 
B( 13-C , 35-C ) :  -0.4940 B( 13-C , 41-C ) :   0.4504 B( 13-C , 42-H ) :  -0.3148 
B( 13-C , 43-C ) :  -1.4910 B( 13-C , 45-C ) :   1.4432 B( 14-H , 43-C ) :  -0.1410 
B( 14-H , 45-C ) :   0.1359 B( 15-C , 16-O ) :   1.5259 B( 15-C , 17-N ) :   1.2059 
B( 15-C , 19-C ) :  -0.1486 B( 15-C , 41-C ) :   0.1920 B( 15-C , 43-C ) :  -0.2046 
B( 16-O , 41-C ) :   0.1124 B( 17-N , 18-H ) :   0.9128 B( 17-N , 19-C ) :   1.1192 
B( 19-C , 20-O ) :   1.7727 B( 19-C , 43-C ) :   0.1270 B( 19-C , 45-C ) :  -0.1009 
B( 19-C , 52-H ) :   0.1673 B( 19-C , 53-C ) :  -0.1105 B( 21-C , 22-H ) :   0.9798 
B( 21-C , 23-C ) :   1.0076 B( 21-C , 27-O ) :   0.4062 B( 21-C , 28-P ) :  -0.1031 
B( 21-C , 29-O ) :   0.1441 B( 21-C , 40-N ) :   0.1068 B( 21-C , 52-H ) :   0.1288 
B( 21-C , 53-C ) :   0.3333 B( 21-C , 54-H ) :  -0.4370 B( 22-H , 29-O ) :  -0.1798 
B( 22-H , 41-C ) :  -0.1167 B( 22-H , 43-C ) :   0.3267 B( 22-H , 45-C ) :  -0.3209 
B( 22-H , 49-C ) :   0.1069 B( 22-H , 51-C ) :  -0.2420 B( 22-H , 53-C ) :  -0.1535 
B( 22-H , 54-H ) :   0.5863 B( 22-H , 55-O ) :  -0.1789 B( 23-C , 24-H ) :   0.6372 
B( 23-C , 25-O ) :   0.5929 B( 23-C , 27-O ) :   0.1964 B( 23-C , 35-C ) :  -0.1448 
B( 23-C , 38-C ) :  -0.1133 B( 23-C , 40-N ) :   0.2042 B( 23-C , 41-C ) :  -0.4563 
B( 23-C , 43-C ) :   0.3908 B( 23-C , 49-C ) :   0.1711 B( 23-C , 51-C ) :   0.1752 
B( 23-C , 53-C ) :  -0.2056 B( 23-C , 54-H ) :   0.2163 B( 24-H , 35-C ) :   0.1278 
B( 24-H , 38-C ) :   0.2022 B( 24-H , 39-H ) :   0.1664 B( 24-H , 40-N ) :  -0.3771 
B( 24-H , 41-C ) :   0.6282 B( 24-H , 43-C ) :  -0.5332 B( 24-H , 45-C ) :   0.1622 
B( 24-H , 49-C ) :  -0.1705 B( 24-H , 54-H ) :  -0.1017 B( 25-O , 26-H ) :   0.7302 
B( 27-O , 28-P ) :   0.8856 B( 27-O , 30-O ) :  -0.1140 B( 27-O , 43-C ) :   0.5629 
B( 27-O , 45-C ) :  -0.4320 B( 28-P , 29-O ) :   1.5375 B( 28-P , 30-O ) :   1.5005 
B( 28-P , 31-O ) :   0.9003 B( 31-O , 32-C ) :   0.6319 B( 31-O , 35-C ) :   0.2143 
B( 31-O , 42-H ) :   0.1318 B( 31-O , 51-C ) :   0.1641 B( 32-C , 33-H ) :   1.0880 
B( 32-C , 34-H ) :   0.8003 B( 32-C , 35-C ) :   1.2057 B( 32-C , 37-O ) :   0.1589 
B( 32-C , 51-C ) :   0.2901 B( 34-H , 41-C ) :   0.1425 B( 34-H , 42-H ) :  -0.1313 
B( 35-C , 36-H ) :   0.6494 B( 35-C , 37-O ) :   0.6977 B( 35-C , 38-C ) :   0.1204 
B( 35-C , 51-C ) :   1.0635 B( 35-C , 53-C ) :   0.1815 B( 35-C , 55-O ) :  -0.1349 
B( 35-C , 57-O ) :   0.2238 B( 37-O , 38-C ) :   0.5783 B( 37-O , 39-H ) :  -0.1155 
B( 37-O , 51-C ) :   0.1248 B( 37-O , 53-C ) :   0.2004 B( 38-C , 39-H ) :   1.0350 
B( 38-C , 40-N ) :   1.4728 B( 38-C , 41-C ) :  -0.4438 B( 38-C , 49-C ) :  -0.1687 
B( 38-C , 51-C ) :   0.1608 B( 38-C , 53-C ) :   0.8260 B( 38-C , 55-O ) :   0.3946 
B( 40-N , 41-C ) :   0.6152 B( 40-N , 43-C ) :  -0.1101 B( 40-N , 49-C ) :   0.9094 
B( 41-C , 42-H ) :  -1.5053 B( 41-C , 43-C ) :   2.1929 B( 41-C , 44-H ) :   0.1045 
B( 41-C , 45-C ) :  -0.1714 B( 42-H , 43-C ) :  -0.6452 B( 43-C , 44-H ) :   0.5663 
B( 43-C , 45-C ) :   0.3860 B( 44-H , 45-C ) :  -0.1105 B( 45-C , 46-O ) :   1.5804 
B( 45-C , 47-N ) :   1.1589 B( 45-C , 49-C ) :  -0.1807 B( 47-N , 48-H ) :   0.9257 
B( 47-N , 49-C ) :   1.1419 B( 49-C , 50-O ) :   1.6787 B( 51-C , 52-H ) :   0.7432 
B( 51-C , 53-C ) :   1.0055 B( 51-C , 55-O ) :   0.2978 B( 51-C , 57-O ) :   0.4774 
B( 53-C , 54-H ) :   0.8769 B( 53-C , 55-O ) :   0.3602 B( 53-C , 57-O ) :   0.1795 
B( 55-O , 56-H ) :   0.7346 B( 57-O , 58-H ) :   0.8436 


------------------
HIRSHFELD ANALYSIS
------------------

Total integrated alpha density =    142.999988722
Total integrated beta density  =    142.999988722

  ATOM     CHARGE      SPIN                 
   0 H    0.157924    0.000000         
   1 O   -0.209542    0.000000         
   2 C    0.030659    0.000000         
   3 H    0.029570    0.000000         
   4 H    0.033480    0.000000         
   5 C    0.059139    0.000000         
   6 H    0.040189    0.000000         
   7 O   -0.196059    0.000000         
   8 C    0.102498    0.000000         
   9 H    0.039435    0.000000         
  10 N   -0.043694    0.000000         
  11 C    0.050606    0.000000         
  12 H    0.047545    0.000000         
  13 C   -0.085281    0.000000         
  14 H    0.045563    0.000000         
  15 C    0.163216    0.000000         
  16 O   -0.345113    0.000000         
  17 N   -0.087663    0.000000         
  18 H    0.146482    0.000000         
  19 C    0.222754    0.000000         
  20 O   -0.312525    0.000000         
  21 C    0.058432    0.000000         
  22 H    0.036973    0.000000         
  23 C    0.047104    0.000000         
  24 H    0.030403    0.000000         
  25 O   -0.244113    0.000000         
  26 H    0.128613    0.000000         
  27 O   -0.201566    0.000000         
  28 P    0.370994    0.000000         
  29 O   -0.461511    0.000000         
  30 O   -0.457061    0.000000         
  31 O   -0.195486    0.000000         
  32 C    0.037752    0.000000         
  33 H    0.033166    0.000000         
  34 H    0.036461    0.000000         
  35 C    0.057728    0.000000         
  36 H    0.031940    0.000000         
  37 O   -0.164435    0.000000         
  38 C    0.118162    0.000000         
  39 H    0.044362    0.000000         
  40 N   -0.051847    0.000000         
  41 C    0.052423    0.000000         
  42 H    0.052435    0.000000         
  43 C   -0.070732    0.000000         
  44 H    0.062511    0.000000         
  45 C    0.162680    0.000000         
  46 O   -0.340868    0.000000         
  47 N   -0.090023    0.000000         
  48 H    0.144099    0.000000         
  49 C    0.211699    0.000000         
  50 O   -0.334264    0.000000         
  51 C    0.050235    0.000000         
  52 H    0.041519    0.000000         
  53 C    0.043528    0.000000         
  54 H    0.029051    0.000000         
  55 O   -0.241621    0.000000         
  56 H    0.128462    0.000000         
  57 O   -0.210068    0.000000         
  58 H    0.163701    0.000000         

  TOTAL  -0.999977    0.000000         

-------
TIMINGS
-------

Total SCF time: 0 days 0 hours 25 min 12 sec 

Total time                  ....    1512.538 sec
Sum of individual times     ....    1320.217 sec  ( 87.3%)

Fock matrix formation       ....    1246.301 sec  ( 82.4%)
  Coulomb formation         ....    1192.625 sec  ( 95.7% of F)
  Split-RI-J                ....     108.798 sec  (  8.7% of F)
  Chain of spheres X        ....    1263.651 sec  (101.4% of F)
  COS-X 1 center corr.      ....       0.000 sec  (  0.0% of F)
  XC integration            ....      52.128 sec  (  4.2% of F)
    Basis function eval.    ....       5.316 sec  ( 10.2% of XC)
    Density eval.           ....      18.350 sec  ( 35.2% of XC)
    XC-Functional eval.     ....       0.239 sec  (  0.5% of XC)
    XC-Potential eval.      ....      23.713 sec  ( 45.5% of XC)
Diagonalization             ....       8.443 sec  (  0.6%)
Density matrix formation    ....       0.899 sec  (  0.1%)
Population analysis         ....      32.438 sec  (  2.1%)
Initial guess               ....       3.228 sec  (  0.2%)
Orbital Transformation      ....       0.000 sec  (  0.0%)
Orbital Orthonormalization  ....       3.053 sec  (  0.2%)
DIIS solution               ....       8.473 sec  (  0.6%)
SOSCF solution              ....       7.034 sec  (  0.5%)
Grid generation             ....      13.400 sec  (  0.9%)
           ************************************************************
           *              Shut down parallel processing               *
           ************************************************************

-------------------------   --------------------
FINAL SINGLE POINT ENERGY     -2311.464674631077
-------------------------   --------------------


                            ***************************************
                            *     ORCA property calculations      *
                            ***************************************

                                    ---------------------
                                    Active property flags
                                    ---------------------
   (+) Dipole Moment


------------------------------------------------------------------------------
                       ORCA ELECTRIC PROPERTIES CALCULATION
------------------------------------------------------------------------------

Dipole Moment Calculation                       ... on
Quadrupole Moment Calculation                   ... off
Polarizability Calculation                      ... off
GBWName                                         ... orca.gbw
Electron density file                           ... orca.scfp.tmp

-------------
DIPOLE MOMENT
-------------
                                X             Y             Z
Electronic contribution:     -9.00664      -9.72052       7.35188
Nuclear contribution   :      9.08401      12.83554     -10.01387
                        -----------------------------------------
Total Dipole Moment    :      0.07737       3.11502      -2.66199
                        -----------------------------------------
Magnitude (a.u.)       :      4.09824
Magnitude (Debye)      :     10.41689


Timings for individual modules:

Sum of individual times         ...     1527.464 sec (=  25.458 min)
GTO integral calculation        ...        8.059 sec (=   0.134 min)   0.5 %
SCF iterations                  ...     1519.405 sec (=  25.323 min)  99.5 %
                             ****ORCA TERMINATED NORMALLY****
TOTAL RUN TIME: 0 days 0 hours 25 minutes 30 seconds 758 msec
